<?xml version="1.0" encoding="UTF-8"?>

<!-- generated on 2025-10-21 08:40:24 by Eclipse SUMO libsumo Version 1.24.0
<libsumoConfiguration xmlns:xsi="http://www.w3.org/2001/XMLSchema-instance" xsi:noNamespaceSchemaLocation="http://sumo.dlr.de/xsd/libsumoConfiguration.xsd">

    <input>
        <net-file value="/home/julesbompard/Documents/Projets/sumo-experiments/src/sumo_experiments/preset_networks/bologna/acosta/acosta_buslanes.net.xml"/>
        <route-files value="/home/julesbompard/Documents/Projets/sumo-experiments/src/sumo_experiments/preset_networks/bologna/acosta/acosta_47526.rou.xml,/home/julesbompard/Documents/Projets/sumo-experiments/src/sumo_experiments/preset_networks/bologna/acosta/acosta_busses.rou.xml"/>
        <additional-files value="/home/julesbompard/Documents/Projets/sumo-experiments/src/sumo_experiments/preset_networks/bologna/acosta/acosta_tls.add.xml,/home/julesbompard/Documents/Projets/sumo-experiments/src/sumo_experiments/preset_networks/bologna/acosta/acosta_vtypes.add.xml,/home/julesbompard/Documents/Projets/sumo-experiments/src/sumo_experiments/preset_networks/bologna/acosta/acosta_detectors.add.xml,/home/julesbompard/Documents/Projets/sumo-experiments/src/sumo_experiments/preset_networks/bologna/acosta/acosta_bus_stops.add.xml"/>
    </input>

    <output>
        <tripinfo-output value="/home/julesbompard/Documents/Projets/sumo-experiments/src/sumo_experiments/preset_networks/bologna/acosta/tripinfos.xml"/>
    </output>

    <processing>
        <threads value="8"/>
        <time-to-teleport value="150"/>
    </processing>

    <report>
        <no-warnings value="true"/>
        <log value="/home/julesbompard/Documents/Projets/sumo-experiments/src/sumo_experiments/preset_networks/bologna/acosta/sumo_log.txt"/>
        <no-step-log value="true"/>
    </report>

    <random_number>
        <random value="true"/>
    </random_number>

    <gui_only>
        <gui-settings-file value="/home/julesbompard/Documents/Projets/sumo-experiments/src/sumo_experiments/preset_networks/bologna/acosta/settings.gui.xml"/>
    </gui_only>

</libsumoConfiguration>
-->

<detector xmlns:xsi="http://www.w3.org/2001/XMLSchema-instance" xsi:noNamespaceSchemaLocation="http://sumo.dlr.de/xsd/det_e2_file.xsd">
   <interval begin="0.00" end="11230.00" id="34_1" sampledSeconds="1755.32" nVehEntered="242" nVehLeft="242" nVehSeen="242" meanSpeed="3.40" meanTimeLoss="5.32" meanOccupancy="3.42" maxOccupancy="82.38" meanMaxJamLengthInVehicles="0.07" meanMaxJamLengthInMeters="0.37" maxJamLengthInVehicles="4" maxJamLengthInMeters="19.98" jamLengthInVehiclesSum="807" jamLengthInMetersSum="4191.67" meanHaltingDuration="8.35" maxHaltingDuration="48.00" haltingDurationSum="877.00" meanIntervalHaltingDuration="8.35" maxIntervalHaltingDuration="48.00" intervalHaltingDurationSum="877.00" startedHalts="108.00" meanVehicleNumber="0.18" maxVehicleNumber="4" />
   <interval begin="0.00" end="11230.00" id="34_2" sampledSeconds="2032.18" nVehEntered="253" nVehLeft="253" nVehSeen="253" meanSpeed="3.09" meanTimeLoss="5.76" meanOccupancy="3.84" maxOccupancy="80.14" meanMaxJamLengthInVehicles="0.08" meanMaxJamLengthInMeters="0.40" maxJamLengthInVehicles="4" maxJamLengthInMeters="19.54" jamLengthInVehiclesSum="884" jamLengthInMetersSum="4540.93" meanHaltingDuration="9.04" maxHaltingDuration="41.00" haltingDurationSum="994.00" meanIntervalHaltingDuration="9.04" maxIntervalHaltingDuration="41.00" intervalHaltingDurationSum="994.00" startedHalts="110.00" meanVehicleNumber="0.20" maxVehicleNumber="4" />
   <interval begin="0.00" end="11230.00" id="34_3" sampledSeconds="10559.74" nVehEntered="385" nVehLeft="385" nVehSeen="385" meanSpeed="0.85" meanTimeLoss="25.63" meanOccupancy="20.02" maxOccupancy="99.38" meanMaxJamLengthInVehicles="0.78" meanMaxJamLengthInMeters="4.01" maxJamLengthInVehicles="5" maxJamLengthInMeters="19.42" jamLengthInVehiclesSum="8772" jamLengthInMetersSum="45052.65" meanHaltingDuration="33.26" maxHaltingDuration="150.00" haltingDurationSum="8848.00" meanIntervalHaltingDuration="33.26" maxIntervalHaltingDuration="150.00" intervalHaltingDurationSum="8848.00" startedHalts="284.00" meanVehicleNumber="0.97" maxVehicleNumber="5" />
   <interval begin="0.00" end="11230.00" id="34_4" sampledSeconds="8318.16" nVehEntered="352" nVehLeft="352" nVehSeen="352" meanSpeed="0.88" meanTimeLoss="22.11" meanOccupancy="16.38" maxOccupancy="80.67" meanMaxJamLengthInVehicles="0.61" meanMaxJamLengthInMeters="3.26" maxJamLengthInVehicles="4" maxJamLengthInMeters="20.00" jamLengthInVehiclesSum="6879" jamLengthInMetersSum="36560.78" meanHaltingDuration="32.48" maxHaltingDuration="152.00" haltingDurationSum="6885.00" meanIntervalHaltingDuration="32.48" maxIntervalHaltingDuration="152.00" intervalHaltingDurationSum="6885.00" startedHalts="245.00" meanVehicleNumber="0.77" maxVehicleNumber="4" />
   <interval begin="0.00" end="11230.00" id="34_5" sampledSeconds="7133.49" nVehEntered="205" nVehLeft="205" nVehSeen="205" meanSpeed="0.66" meanTimeLoss="33.15" meanOccupancy="13.62" maxOccupancy="79.38" meanMaxJamLengthInVehicles="0.54" meanMaxJamLengthInMeters="2.80" maxJamLengthInVehicles="4" maxJamLengthInMeters="19.38" jamLengthInVehiclesSum="6055" jamLengthInMetersSum="31465.84" meanHaltingDuration="31.98" maxHaltingDuration="150.00" haltingDurationSum="6077.00" meanIntervalHaltingDuration="31.98" maxIntervalHaltingDuration="150.00" intervalHaltingDurationSum="6077.00" startedHalts="192.00" meanVehicleNumber="0.65" maxVehicleNumber="4" />
   <interval begin="0.00" end="11230.00" id="34_6" sampledSeconds="530.01" nVehEntered="253" nVehLeft="253" nVehSeen="253" meanSpeed="11.84" meanTimeLoss="0.30" meanOccupancy="0.91" maxOccupancy="36.41" meanMaxJamLengthInVehicles="0.00" meanMaxJamLengthInMeters="0.00" maxJamLengthInVehicles="0" maxJamLengthInMeters="0.00" jamLengthInVehiclesSum="0" jamLengthInMetersSum="0.00" meanHaltingDuration="0.00" maxHaltingDuration="0.00" haltingDurationSum="0.00" meanIntervalHaltingDuration="0.00" maxIntervalHaltingDuration="0.00" intervalHaltingDurationSum="0.00" startedHalts="0.00" meanVehicleNumber="0.07" maxVehicleNumber="2" />
   <interval begin="0.00" end="11230.00" id="34_7" sampledSeconds="1152.72" nVehEntered="531" nVehLeft="531" nVehSeen="531" meanSpeed="11.32" meanTimeLoss="0.37" meanOccupancy="2.00" maxOccupancy="60.00" meanMaxJamLengthInVehicles="0.00" meanMaxJamLengthInMeters="0.00" maxJamLengthInVehicles="0" maxJamLengthInMeters="0.00" jamLengthInVehiclesSum="0" jamLengthInMetersSum="0.00" meanHaltingDuration="0.00" maxHaltingDuration="0.00" haltingDurationSum="0.00" meanIntervalHaltingDuration="0.00" maxIntervalHaltingDuration="0.00" intervalHaltingDurationSum="0.00" startedHalts="0.00" meanVehicleNumber="0.15" maxVehicleNumber="3" />
   <interval begin="0.00" end="11230.00" id="34_8" sampledSeconds="624.71" nVehEntered="335" nVehLeft="335" nVehSeen="335" meanSpeed="12.41" meanTimeLoss="0.19" meanOccupancy="1.08" maxOccupancy="40.02" meanMaxJamLengthInVehicles="0.00" meanMaxJamLengthInMeters="0.00" maxJamLengthInVehicles="0" maxJamLengthInMeters="0.00" jamLengthInVehiclesSum="0" jamLengthInMetersSum="0.00" meanHaltingDuration="0.00" maxHaltingDuration="0.00" haltingDurationSum="0.00" meanIntervalHaltingDuration="0.00" maxIntervalHaltingDuration="0.00" intervalHaltingDurationSum="0.00" startedHalts="0.00" meanVehicleNumber="0.08" maxVehicleNumber="2" />
   <interval begin="0.00" end="11230.00" id="34_9" sampledSeconds="20.44" nVehEntered="31" nVehLeft="31" nVehSeen="31" meanSpeed="13.33" meanTimeLoss="0.07" meanOccupancy="0.01" maxOccupancy="25.00" meanMaxJamLengthInVehicles="0.00" meanMaxJamLengthInMeters="0.00" maxJamLengthInVehicles="0" maxJamLengthInMeters="0.00" jamLengthInVehiclesSum="0" jamLengthInMetersSum="0.00" meanHaltingDuration="0.00" maxHaltingDuration="0.00" haltingDurationSum="0.00" meanIntervalHaltingDuration="0.00" maxIntervalHaltingDuration="0.00" intervalHaltingDurationSum="0.00" startedHalts="0.00" meanVehicleNumber="0.00" maxVehicleNumber="1" />
   <interval begin="0.00" end="11230.00" id="34_10" sampledSeconds="1754.63" nVehEntered="242" nVehLeft="242" nVehSeen="242" meanSpeed="3.40" meanTimeLoss="5.31" meanOccupancy="3.42" maxOccupancy="82.46" meanMaxJamLengthInVehicles="0.07" meanMaxJamLengthInMeters="0.37" maxJamLengthInVehicles="4" maxJamLengthInMeters="19.98" jamLengthInVehiclesSum="807" jamLengthInMetersSum="4191.35" meanHaltingDuration="8.35" maxHaltingDuration="48.00" haltingDurationSum="877.00" meanIntervalHaltingDuration="8.35" maxIntervalHaltingDuration="48.00" intervalHaltingDurationSum="877.00" startedHalts="108.00" meanVehicleNumber="0.18" maxVehicleNumber="4" />
   <interval begin="0.00" end="11230.00" id="34_11" sampledSeconds="3436.45" nVehEntered="246" nVehLeft="246" nVehSeen="246" meanSpeed="13.11" meanTimeLoss="0.77" meanOccupancy="0.80" maxOccupancy="11.11" meanMaxJamLengthInVehicles="0.00" meanMaxJamLengthInMeters="0.00" maxJamLengthInVehicles="0" maxJamLengthInMeters="0.00" jamLengthInVehiclesSum="0" jamLengthInMetersSum="0.00" meanHaltingDuration="0.00" maxHaltingDuration="0.00" haltingDurationSum="0.00" meanIntervalHaltingDuration="0.00" maxIntervalHaltingDuration="0.00" intervalHaltingDurationSum="0.00" startedHalts="1.00" meanVehicleNumber="0.33" maxVehicleNumber="5" />
   <interval begin="0.00" end="11230.00" id="34_12" sampledSeconds="4381.43" nVehEntered="253" nVehLeft="253" nVehSeen="253" meanSpeed="7.64" meanTimeLoss="7.29" meanOccupancy="1.41" maxOccupancy="26.66" meanMaxJamLengthInVehicles="0.08" meanMaxJamLengthInMeters="0.45" maxJamLengthInVehicles="7" maxJamLengthInMeters="41.74" jamLengthInVehiclesSum="937" jamLengthInMetersSum="5045.13" meanHaltingDuration="8.74" maxHaltingDuration="41.00" haltingDurationSum="1058.00" meanIntervalHaltingDuration="8.74" maxIntervalHaltingDuration="41.00" intervalHaltingDurationSum="1058.00" startedHalts="121.00" meanVehicleNumber="0.41" maxVehicleNumber="8" />
   <interval begin="0.00" end="11230.00" id="34_13" sampledSeconds="14461.70" nVehEntered="535" nVehLeft="535" nVehSeen="535" meanSpeed="2.65" meanTimeLoss="21.72" meanOccupancy="7.85" maxOccupancy="49.13" meanMaxJamLengthInVehicles="0.88" meanMaxJamLengthInMeters="5.10" maxJamLengthInVehicles="7" maxJamLengthInMeters="43.05" jamLengthInVehiclesSum="9884" jamLengthInMetersSum="57332.52" meanHaltingDuration="33.68" maxHaltingDuration="151.00" haltingDurationSum="9969.00" meanIntervalHaltingDuration="33.68" maxIntervalHaltingDuration="151.00" intervalHaltingDurationSum="9969.00" startedHalts="326.00" meanVehicleNumber="1.32" maxVehicleNumber="8" />
   <interval begin="0.00" end="11230.00" id="34_14" sampledSeconds="10663.02" nVehEntered="502" nVehLeft="502" nVehSeen="502" meanSpeed="2.42" meanTimeLoss="17.49" meanOccupancy="5.68" maxOccupancy="42.20" meanMaxJamLengthInVehicles="0.68" meanMaxJamLengthInMeters="3.85" maxJamLengthInVehicles="7" maxJamLengthInMeters="41.53" jamLengthInVehiclesSum="7594" jamLengthInMetersSum="43267.68" meanHaltingDuration="32.93" maxHaltingDuration="152.00" haltingDurationSum="7607.00" meanIntervalHaltingDuration="32.93" maxIntervalHaltingDuration="152.00" intervalHaltingDurationSum="7607.00" startedHalts="271.00" meanVehicleNumber="0.98" maxVehicleNumber="7" />
   <interval begin="0.00" end="11230.00" id="34_15" sampledSeconds="7739.47" nVehEntered="205" nVehLeft="205" nVehSeen="205" meanSpeed="0.93" meanTimeLoss="35.29" meanOccupancy="4.09" maxOccupancy="35.90" meanMaxJamLengthInVehicles="0.57" meanMaxJamLengthInMeters="3.28" maxJamLengthInVehicles="6" maxJamLengthInMeters="36.05" jamLengthInVehiclesSum="6430" jamLengthInMetersSum="36801.28" meanHaltingDuration="32.63" maxHaltingDuration="150.00" haltingDurationSum="6460.00" meanIntervalHaltingDuration="32.63" maxIntervalHaltingDuration="150.00" intervalHaltingDurationSum="6460.00" startedHalts="200.00" meanVehicleNumber="0.70" maxVehicleNumber="6" />
   <interval begin="0.00" end="11230.00" id="27_1" sampledSeconds="17209.23" nVehEntered="416" nVehLeft="416" nVehSeen="416" meanSpeed="0.58" meanTimeLoss="39.31" meanOccupancy="31.44" maxOccupancy="85.00" meanMaxJamLengthInVehicles="1.32" meanMaxJamLengthInMeters="6.75" maxJamLengthInVehicles="4" maxJamLengthInMeters="20.00" jamLengthInVehiclesSum="14828" jamLengthInMetersSum="75846.82" meanHaltingDuration="38.08" maxHaltingDuration="157.00" haltingDurationSum="13748.00" meanIntervalHaltingDuration="38.08" maxIntervalHaltingDuration="157.00" intervalHaltingDurationSum="13748.00" startedHalts="382.00" meanVehicleNumber="1.57" maxVehicleNumber="4" />
   <interval begin="0.00" end="11230.00" id="27_2" sampledSeconds="17707.59" nVehEntered="336" nVehLeft="336" nVehSeen="336" meanSpeed="0.43" meanTimeLoss="51.04" meanOccupancy="30.76" maxOccupancy="80.08" meanMaxJamLengthInVehicles="1.41" meanMaxJamLengthInMeters="6.91" maxJamLengthInVehicles="4" maxJamLengthInMeters="20.00" jamLengthInVehiclesSum="15856" jamLengthInMetersSum="77595.53" meanHaltingDuration="43.78" maxHaltingDuration="155.00" haltingDurationSum="15278.00" meanIntervalHaltingDuration="43.78" maxIntervalHaltingDuration="155.00" intervalHaltingDurationSum="15278.00" startedHalts="365.00" meanVehicleNumber="1.61" maxVehicleNumber="4" />
   <interval begin="0.00" end="11230.00" id="27_3" sampledSeconds="17029.04" nVehEntered="328" nVehLeft="328" nVehSeen="328" meanSpeed="0.46" meanTimeLoss="50.20" meanOccupancy="29.41" maxOccupancy="80.08" meanMaxJamLengthInVehicles="1.36" meanMaxJamLengthInMeters="6.65" maxJamLengthInVehicles="4" maxJamLengthInMeters="20.00" jamLengthInVehiclesSum="15230" jamLengthInMetersSum="74642.26" meanHaltingDuration="48.21" maxHaltingDuration="152.00" haltingDurationSum="15041.00" meanIntervalHaltingDuration="48.21" maxIntervalHaltingDuration="152.00" intervalHaltingDurationSum="15041.00" startedHalts="323.00" meanVehicleNumber="1.54" maxVehicleNumber="4" />
   <interval begin="0.00" end="11230.00" id="27_4" sampledSeconds="0.00" nVehEntered="0" nVehLeft="0" nVehSeen="0" meanSpeed="-1.00" meanTimeLoss="-1.00" meanOccupancy="0.00" maxOccupancy="0.00" meanMaxJamLengthInVehicles="0.00" meanMaxJamLengthInMeters="0.00" maxJamLengthInVehicles="0" maxJamLengthInMeters="0.00" jamLengthInVehiclesSum="0" jamLengthInMetersSum="0.00" meanHaltingDuration="0.00" maxHaltingDuration="0.00" haltingDurationSum="0.00" meanIntervalHaltingDuration="0.00" maxIntervalHaltingDuration="0.00" intervalHaltingDurationSum="0.00" startedHalts="0.00" meanVehicleNumber="0.00" maxVehicleNumber="0" />
   <interval begin="0.00" end="11230.00" id="27_5" sampledSeconds="405.85" nVehEntered="23" nVehLeft="23" nVehSeen="23" meanSpeed="1.27" meanTimeLoss="16.03" meanOccupancy="3.34" maxOccupancy="100.00" meanMaxJamLengthInVehicles="0.03" meanMaxJamLengthInMeters="0.29" maxJamLengthInVehicles="1" maxJamLengthInMeters="10.38" jamLengthInVehiclesSum="309" jamLengthInMetersSum="3206.80" meanHaltingDuration="24.77" maxHaltingDuration="75.00" haltingDurationSum="322.00" meanIntervalHaltingDuration="24.77" maxIntervalHaltingDuration="75.00" intervalHaltingDurationSum="322.00" startedHalts="13.00" meanVehicleNumber="0.04" maxVehicleNumber="1" />
   <interval begin="0.00" end="11230.00" id="27_6" sampledSeconds="0.00" nVehEntered="0" nVehLeft="0" nVehSeen="0" meanSpeed="-1.00" meanTimeLoss="-1.00" meanOccupancy="0.00" maxOccupancy="0.00" meanMaxJamLengthInVehicles="0.00" meanMaxJamLengthInMeters="0.00" maxJamLengthInVehicles="0" maxJamLengthInMeters="0.00" jamLengthInVehiclesSum="0" jamLengthInMetersSum="0.00" meanHaltingDuration="0.00" maxHaltingDuration="0.00" haltingDurationSum="0.00" meanIntervalHaltingDuration="0.00" maxIntervalHaltingDuration="0.00" intervalHaltingDurationSum="0.00" startedHalts="0.00" meanVehicleNumber="0.00" maxVehicleNumber="0" />
   <interval begin="0.00" end="11230.00" id="27_7" sampledSeconds="10208.75" nVehEntered="372" nVehLeft="372" nVehSeen="372" meanSpeed="0.89" meanTimeLoss="25.66" meanOccupancy="20.49" maxOccupancy="85.00" meanMaxJamLengthInVehicles="0.75" meanMaxJamLengthInMeters="4.11" maxJamLengthInVehicles="4" maxJamLengthInMeters="20.00" jamLengthInVehiclesSum="8410" jamLengthInMetersSum="46194.18" meanHaltingDuration="31.47" maxHaltingDuration="151.00" haltingDurationSum="8529.00" meanIntervalHaltingDuration="31.47" maxIntervalHaltingDuration="151.00" intervalHaltingDurationSum="8529.00" startedHalts="273.00" meanVehicleNumber="0.94" maxVehicleNumber="4" />
   <interval begin="0.00" end="11230.00" id="27_8" sampledSeconds="10228.12" nVehEntered="325" nVehLeft="325" nVehSeen="325" meanSpeed="0.78" meanTimeLoss="29.69" meanOccupancy="18.01" maxOccupancy="82.48" meanMaxJamLengthInVehicles="0.77" meanMaxJamLengthInMeters="3.77" maxJamLengthInVehicles="4" maxJamLengthInMeters="20.00" jamLengthInVehiclesSum="8621" jamLengthInMetersSum="42374.95" meanHaltingDuration="34.95" maxHaltingDuration="151.00" haltingDurationSum="8702.00" meanIntervalHaltingDuration="34.95" maxIntervalHaltingDuration="151.00" intervalHaltingDurationSum="8702.00" startedHalts="252.00" meanVehicleNumber="0.94" maxVehicleNumber="4" />
   <interval begin="0.00" end="11230.00" id="27_9" sampledSeconds="1101.14" nVehEntered="37" nVehLeft="37" nVehSeen="37" meanSpeed="0.80" meanTimeLoss="28.02" meanOccupancy="2.25" maxOccupancy="72.50" meanMaxJamLengthInVehicles="0.08" meanMaxJamLengthInMeters="0.41" maxJamLengthInVehicles="3" maxJamLengthInMeters="17.54" jamLengthInVehiclesSum="923" jamLengthInMetersSum="4576.82" meanHaltingDuration="29.84" maxHaltingDuration="140.00" haltingDurationSum="955.00" meanIntervalHaltingDuration="29.84" maxIntervalHaltingDuration="140.00" intervalHaltingDurationSum="955.00" startedHalts="33.00" meanVehicleNumber="0.10" maxVehicleNumber="3" />
   <interval begin="0.00" end="11230.00" id="27_10" sampledSeconds="3786.95" nVehEntered="161" nVehLeft="161" nVehSeen="161" meanSpeed="1.06" meanTimeLoss="21.43" meanOccupancy="7.32" maxOccupancy="132.46" meanMaxJamLengthInVehicles="0.26" meanMaxJamLengthInMeters="1.30" maxJamLengthInVehicles="5" maxJamLengthInMeters="20.01" jamLengthInVehiclesSum="2953" jamLengthInMetersSum="14577.03" meanHaltingDuration="24.81" maxHaltingDuration="100.00" haltingDurationSum="3077.00" meanIntervalHaltingDuration="24.81" maxIntervalHaltingDuration="100.00" intervalHaltingDurationSum="3077.00" startedHalts="124.00" meanVehicleNumber="0.35" maxVehicleNumber="5" />
   <interval begin="0.00" end="11230.00" id="27_11" sampledSeconds="692.40" nVehEntered="37" nVehLeft="37" nVehSeen="37" meanSpeed="1.57" meanTimeLoss="16.59" meanOccupancy="2.77" maxOccupancy="84.96" meanMaxJamLengthInVehicles="0.04" meanMaxJamLengthInMeters="0.44" maxJamLengthInVehicles="2" maxJamLengthInMeters="19.01" jamLengthInVehiclesSum="502" jamLengthInMetersSum="4938.23" meanHaltingDuration="20.31" maxHaltingDuration="99.00" haltingDurationSum="528.00" meanIntervalHaltingDuration="20.31" maxIntervalHaltingDuration="99.00" intervalHaltingDurationSum="528.00" startedHalts="26.00" meanVehicleNumber="0.07" maxVehicleNumber="3" />
   <interval begin="0.00" end="11230.00" id="27_12" sampledSeconds="9274.20" nVehEntered="134" nVehLeft="134" nVehSeen="134" meanSpeed="0.36" meanTimeLoss="67.29" meanOccupancy="16.50" maxOccupancy="81.99" meanMaxJamLengthInVehicles="0.74" meanMaxJamLengthInMeters="3.71" maxJamLengthInVehicles="4" maxJamLengthInMeters="20.01" jamLengthInVehiclesSum="8354" jamLengthInMetersSum="41707.04" meanHaltingDuration="40.99" maxHaltingDuration="167.00" haltingDurationSum="8240.00" meanIntervalHaltingDuration="40.99" maxIntervalHaltingDuration="167.00" intervalHaltingDurationSum="8240.00" startedHalts="208.00" meanVehicleNumber="0.84" maxVehicleNumber="4" />
   <interval begin="0.00" end="11230.00" id="27_13" sampledSeconds="13672.87" nVehEntered="495" nVehLeft="495" nVehSeen="495" meanSpeed="0.87" meanTimeLoss="25.85" meanOccupancy="25.60" maxOccupancy="82.23" meanMaxJamLengthInVehicles="1.02" meanMaxJamLengthInMeters="5.33" maxJamLengthInVehicles="4" maxJamLengthInMeters="20.00" jamLengthInVehiclesSum="11421" jamLengthInMetersSum="59876.13" meanHaltingDuration="39.09" maxHaltingDuration="311.00" haltingDurationSum="10436.00" meanIntervalHaltingDuration="39.09" maxIntervalHaltingDuration="311.00" intervalHaltingDurationSum="10436.00" startedHalts="319.00" meanVehicleNumber="1.26" maxVehicleNumber="4" />
   <interval begin="0.00" end="11230.00" id="27_14" sampledSeconds="12875.17" nVehEntered="587" nVehLeft="587" nVehSeen="587" meanSpeed="0.80" meanTimeLoss="20.67" meanOccupancy="23.59" maxOccupancy="79.95" meanMaxJamLengthInVehicles="0.98" meanMaxJamLengthInMeters="4.97" maxJamLengthInVehicles="4" maxJamLengthInMeters="20.00" jamLengthInVehiclesSum="11041" jamLengthInMetersSum="55838.62" meanHaltingDuration="36.89" maxHaltingDuration="205.00" haltingDurationSum="7894.00" meanIntervalHaltingDuration="36.89" maxIntervalHaltingDuration="205.00" intervalHaltingDurationSum="7894.00" startedHalts="322.00" meanVehicleNumber="1.19" maxVehicleNumber="4" />
   <interval begin="0.00" end="11230.00" id="27_15" sampledSeconds="10254.33" nVehEntered="253" nVehLeft="253" nVehSeen="253" meanSpeed="0.39" meanTimeLoss="39.40" meanOccupancy="17.06" maxOccupancy="79.98" meanMaxJamLengthInVehicles="0.82" meanMaxJamLengthInMeters="3.81" maxJamLengthInVehicles="4" maxJamLengthInMeters="20.00" jamLengthInVehiclesSum="9247" jamLengthInMetersSum="42839.28" meanHaltingDuration="44.55" maxHaltingDuration="186.00" haltingDurationSum="8152.00" meanIntervalHaltingDuration="44.55" maxIntervalHaltingDuration="186.00" intervalHaltingDurationSum="8152.00" startedHalts="208.00" meanVehicleNumber="0.92" maxVehicleNumber="4" />
   <interval begin="0.00" end="11230.00" id="27_16" sampledSeconds="1301.85" nVehEntered="387" nVehLeft="387" nVehSeen="387" meanSpeed="7.18" meanTimeLoss="1.57" meanOccupancy="2.27" maxOccupancy="76.63" meanMaxJamLengthInVehicles="0.03" meanMaxJamLengthInMeters="0.15" maxJamLengthInVehicles="4" maxJamLengthInMeters="19.97" jamLengthInVehiclesSum="359" jamLengthInMetersSum="1677.16" meanHaltingDuration="21.38" maxHaltingDuration="44.00" haltingDurationSum="342.00" meanIntervalHaltingDuration="21.38" maxIntervalHaltingDuration="44.00" intervalHaltingDurationSum="342.00" startedHalts="21.00" meanVehicleNumber="0.15" maxVehicleNumber="4" />
   <interval begin="0.00" end="11230.00" id="27_17" sampledSeconds="1135.07" nVehEntered="326" nVehLeft="326" nVehSeen="326" meanSpeed="6.65" meanTimeLoss="1.83" meanOccupancy="1.89" maxOccupancy="70.00" meanMaxJamLengthInVehicles="0.04" meanMaxJamLengthInMeters="0.15" maxJamLengthInVehicles="3" maxJamLengthInMeters="16.89" jamLengthInVehiclesSum="399" jamLengthInMetersSum="1697.90" meanHaltingDuration="21.69" maxHaltingDuration="43.00" haltingDurationSum="347.00" meanIntervalHaltingDuration="21.69" maxIntervalHaltingDuration="43.00" intervalHaltingDurationSum="347.00" startedHalts="21.00" meanVehicleNumber="0.13" maxVehicleNumber="3" />
   <interval begin="0.00" end="11230.00" id="27_18" sampledSeconds="111.30" nVehEntered="65" nVehLeft="65" nVehSeen="65" meanSpeed="11.14" meanTimeLoss="0.35" meanOccupancy="0.20" maxOccupancy="40.28" meanMaxJamLengthInVehicles="0.00" meanMaxJamLengthInMeters="0.00" maxJamLengthInVehicles="0" maxJamLengthInMeters="0.00" jamLengthInVehiclesSum="0" jamLengthInMetersSum="0.00" meanHaltingDuration="0.00" maxHaltingDuration="0.00" haltingDurationSum="0.00" meanIntervalHaltingDuration="0.00" maxIntervalHaltingDuration="0.00" intervalHaltingDurationSum="0.00" startedHalts="0.00" meanVehicleNumber="0.01" maxVehicleNumber="2" />
   <interval begin="0.00" end="11230.00" id="27_19" sampledSeconds="3534.06" nVehEntered="333" nVehLeft="333" nVehSeen="333" meanSpeed="2.38" meanTimeLoss="8.76" meanOccupancy="6.29" maxOccupancy="82.48" meanMaxJamLengthInVehicles="0.23" meanMaxJamLengthInMeters="1.14" maxJamLengthInVehicles="5" maxJamLengthInMeters="20.00" jamLengthInVehiclesSum="2581" jamLengthInMetersSum="12759.52" meanHaltingDuration="57.57" maxHaltingDuration="213.00" haltingDurationSum="2130.00" meanIntervalHaltingDuration="57.57" maxIntervalHaltingDuration="213.00" intervalHaltingDurationSum="2130.00" startedHalts="47.00" meanVehicleNumber="0.34" maxVehicleNumber="5" />
   <interval begin="0.00" end="11230.00" id="27_20" sampledSeconds="52896.61" nVehEntered="497" nVehLeft="497" nVehSeen="497" meanSpeed="0.70" meanTimeLoss="100.67" meanOccupancy="29.20" maxOccupancy="81.11" meanMaxJamLengthInVehicles="3.94" meanMaxJamLengthInMeters="24.77" maxJamLengthInVehicles="13" maxJamLengthInMeters="79.52" jamLengthInVehiclesSum="44906" jamLengthInMetersSum="281991.26" meanHaltingDuration="41.01" maxHaltingDuration="311.00" haltingDurationSum="44371.00" meanIntervalHaltingDuration="41.01" maxIntervalHaltingDuration="311.00" intervalHaltingDurationSum="44371.00" startedHalts="1116.00" meanVehicleNumber="4.75" maxVehicleNumber="13" />
   <interval begin="0.00" end="11230.00" id="27_21" sampledSeconds="53139.62" nVehEntered="658" nVehLeft="658" nVehSeen="658" meanSpeed="0.55" meanTimeLoss="77.54" meanOccupancy="28.37" maxOccupancy="79.23" meanMaxJamLengthInVehicles="4.09" meanMaxJamLengthInMeters="24.80" maxJamLengthInVehicles="14" maxJamLengthInMeters="79.52" jamLengthInVehiclesSum="46857" jamLengthInMetersSum="283975.84" meanHaltingDuration="44.44" maxHaltingDuration="330.00" haltingDurationSum="45503.00" meanIntervalHaltingDuration="44.44" maxIntervalHaltingDuration="330.00" intervalHaltingDurationSum="45503.00" startedHalts="1111.00" meanVehicleNumber="4.77" maxVehicleNumber="14" />
   <interval begin="0.00" end="11230.00" id="27_22" sampledSeconds="48111.62" nVehEntered="337" nVehLeft="337" nVehSeen="337" meanSpeed="0.44" meanTimeLoss="138.19" meanOccupancy="25.84" maxOccupancy="79.23" meanMaxJamLengthInVehicles="3.77" meanMaxJamLengthInMeters="23.06" maxJamLengthInVehicles="13" maxJamLengthInMeters="79.52" jamLengthInVehiclesSum="42836" jamLengthInMetersSum="262127.69" meanHaltingDuration="47.52" maxHaltingDuration="186.00" haltingDurationSum="43247.00" meanIntervalHaltingDuration="47.52" maxIntervalHaltingDuration="186.00" intervalHaltingDurationSum="43247.00" startedHalts="922.00" meanVehicleNumber="4.30" maxVehicleNumber="13" />
   <interval begin="0.00" end="11230.00" id="27_23" sampledSeconds="0.00" nVehEntered="0" nVehLeft="0" nVehSeen="0" meanSpeed="-1.00" meanTimeLoss="-1.00" meanOccupancy="0.00" maxOccupancy="0.00" meanMaxJamLengthInVehicles="0.00" meanMaxJamLengthInMeters="0.00" maxJamLengthInVehicles="0" maxJamLengthInMeters="0.00" jamLengthInVehiclesSum="0" jamLengthInMetersSum="0.00" meanHaltingDuration="0.00" maxHaltingDuration="0.00" haltingDurationSum="0.00" meanIntervalHaltingDuration="0.00" maxIntervalHaltingDuration="0.00" intervalHaltingDurationSum="0.00" startedHalts="0.00" meanVehicleNumber="0.00" maxVehicleNumber="0" />
   <interval begin="0.00" end="11230.00" id="27_24" sampledSeconds="405.85" nVehEntered="23" nVehLeft="23" nVehSeen="23" meanSpeed="1.27" meanTimeLoss="16.03" meanOccupancy="3.34" maxOccupancy="100.00" meanMaxJamLengthInVehicles="0.03" meanMaxJamLengthInMeters="0.29" maxJamLengthInVehicles="1" maxJamLengthInMeters="10.38" jamLengthInVehiclesSum="309" jamLengthInMetersSum="3206.80" meanHaltingDuration="24.77" maxHaltingDuration="75.00" haltingDurationSum="322.00" meanIntervalHaltingDuration="24.77" maxIntervalHaltingDuration="75.00" intervalHaltingDurationSum="322.00" startedHalts="13.00" meanVehicleNumber="0.04" maxVehicleNumber="1" />
   <interval begin="0.00" end="11230.00" id="27_25" sampledSeconds="0.00" nVehEntered="0" nVehLeft="0" nVehSeen="0" meanSpeed="-1.00" meanTimeLoss="-1.00" meanOccupancy="0.00" maxOccupancy="0.00" meanMaxJamLengthInVehicles="0.00" meanMaxJamLengthInMeters="0.00" maxJamLengthInVehicles="0" maxJamLengthInMeters="0.00" jamLengthInVehiclesSum="0" jamLengthInMetersSum="0.00" meanHaltingDuration="0.00" maxHaltingDuration="0.00" haltingDurationSum="0.00" meanIntervalHaltingDuration="0.00" maxIntervalHaltingDuration="0.00" intervalHaltingDurationSum="0.00" startedHalts="0.00" meanVehicleNumber="0.00" maxVehicleNumber="0" />
   <interval begin="0.00" end="11230.00" id="27_26" sampledSeconds="1178.21" nVehEntered="24" nVehLeft="24" nVehSeen="24" meanSpeed="3.41" meanTimeLoss="37.06" meanOccupancy="0.77" maxOccupancy="23.05" meanMaxJamLengthInVehicles="0.06" meanMaxJamLengthInMeters="0.73" maxJamLengthInVehicles="3" maxJamLengthInMeters="42.17" jamLengthInVehiclesSum="652" jamLengthInMetersSum="8201.38" meanHaltingDuration="19.63" maxHaltingDuration="24.00" haltingDurationSum="687.00" meanIntervalHaltingDuration="19.63" maxIntervalHaltingDuration="24.00" intervalHaltingDurationSum="687.00" startedHalts="35.00" meanVehicleNumber="0.11" maxVehicleNumber="3" />
   <interval begin="0.00" end="11230.00" id="27_27" sampledSeconds="0.00" nVehEntered="0" nVehLeft="0" nVehSeen="0" meanSpeed="-1.00" meanTimeLoss="-1.00" meanOccupancy="0.00" maxOccupancy="0.00" meanMaxJamLengthInVehicles="0.00" meanMaxJamLengthInMeters="0.00" maxJamLengthInVehicles="0" maxJamLengthInMeters="0.00" jamLengthInVehiclesSum="0" jamLengthInMetersSum="0.00" meanHaltingDuration="0.00" maxHaltingDuration="0.00" haltingDurationSum="0.00" meanIntervalHaltingDuration="0.00" maxIntervalHaltingDuration="0.00" intervalHaltingDurationSum="0.00" startedHalts="0.00" meanVehicleNumber="0.00" maxVehicleNumber="0" />