<?xml version="1.0" encoding="UTF-8"?>

<!-- generated on 2025-10-20 16:45:08 by Eclipse SUMO libsumo Version 1.24.0
<libsumoConfiguration xmlns:xsi="http://www.w3.org/2001/XMLSchema-instance" xsi:noNamespaceSchemaLocation="http://sumo.dlr.de/xsd/libsumoConfiguration.xsd">

    <input>
        <net-file value="/home/julesbompard/Documents/Projets/sumo-experiments/src/sumo_experiments/preset_networks/bologna/acosta/acosta_buslanes.net.xml"/>
        <route-files value="/home/julesbompard/Documents/Projets/sumo-experiments/src/sumo_experiments/preset_networks/bologna/acosta/acosta_98423.rou.xml,/home/julesbompard/Documents/Projets/sumo-experiments/src/sumo_experiments/preset_networks/bologna/acosta/acosta_busses.rou.xml"/>
        <additional-files value="/home/julesbompard/Documents/Projets/sumo-experiments/src/sumo_experiments/preset_networks/bologna/acosta/acosta_tls.add.xml,/home/julesbompard/Documents/Projets/sumo-experiments/src/sumo_experiments/preset_networks/bologna/acosta/acosta_vtypes.add.xml,/home/julesbompard/Documents/Projets/sumo-experiments/src/sumo_experiments/preset_networks/bologna/acosta/acosta_detectors.add.xml,/home/julesbompard/Documents/Projets/sumo-experiments/src/sumo_experiments/preset_networks/bologna/acosta/acosta_bus_stops.add.xml"/>
    </input>

    <output>
        <tripinfo-output value="/home/julesbompard/Documents/Projets/sumo-experiments/src/sumo_experiments/preset_networks/bologna/acosta/tripinfos.xml"/>
    </output>

    <processing>
        <threads value="8"/>
        <time-to-teleport value="150"/>
    </processing>

    <report>
        <log value="/home/julesbompard/Documents/Projets/sumo-experiments/src/sumo_experiments/preset_networks/bologna/acosta/sumo_log.txt"/>
        <no-step-log value="true"/>
    </report>

    <random_number>
        <random value="true"/>
    </random_number>

    <gui_only>
        <gui-settings-file value="/home/julesbompard/Documents/Projets/sumo-experiments/src/sumo_experiments/preset_networks/bologna/acosta/settings.gui.xml"/>
    </gui_only>

</libsumoConfiguration>
-->

<detector xmlns:xsi="http://www.w3.org/2001/XMLSchema-instance" xsi:noNamespaceSchemaLocation="http://sumo.dlr.de/xsd/det_e2_file.xsd">
   <interval begin="0.00" end="8868.00" id="34_1" sampledSeconds="1746.96" nVehEntered="228" nVehLeft="228" nVehSeen="228" meanSpeed="3.24" meanTimeLoss="5.71" meanOccupancy="4.35" maxOccupancy="77.38" meanMaxJamLengthInVehicles="0.09" meanMaxJamLengthInMeters="0.49" maxJamLengthInVehicles="4" maxJamLengthInMeters="19.98" jamLengthInVehiclesSum="825" jamLengthInMetersSum="4306.08" meanHaltingDuration="8.86" maxHaltingDuration="26.00" haltingDurationSum="930.00" meanIntervalHaltingDuration="8.86" maxIntervalHaltingDuration="26.00" intervalHaltingDurationSum="930.00" startedHalts="105.00" meanVehicleNumber="0.22" maxVehicleNumber="4" />
   <interval begin="0.00" end="8868.00" id="34_2" sampledSeconds="3068.27" nVehEntered="287" nVehLeft="287" nVehSeen="287" meanSpeed="2.32" meanTimeLoss="8.36" meanOccupancy="7.32" maxOccupancy="77.68" meanMaxJamLengthInVehicles="0.18" meanMaxJamLengthInMeters="0.94" maxJamLengthInVehicles="4" maxJamLengthInMeters="19.54" jamLengthInVehiclesSum="1620" jamLengthInMetersSum="8296.53" meanHaltingDuration="10.31" maxHaltingDuration="38.00" haltingDurationSum="1794.00" meanIntervalHaltingDuration="10.31" maxIntervalHaltingDuration="38.00" intervalHaltingDurationSum="1794.00" startedHalts="174.00" meanVehicleNumber="0.38" maxVehicleNumber="4" />
   <interval begin="0.00" end="8868.00" id="34_3" sampledSeconds="10792.65" nVehEntered="460" nVehLeft="460" nVehSeen="460" meanSpeed="0.97" meanTimeLoss="21.71" meanOccupancy="28.04" maxOccupancy="81.89" meanMaxJamLengthInVehicles="0.99" meanMaxJamLengthInMeters="5.39" maxJamLengthInVehicles="4" maxJamLengthInMeters="19.78" jamLengthInVehiclesSum="8778" jamLengthInMetersSum="47769.05" meanHaltingDuration="30.80" maxHaltingDuration="151.00" haltingDurationSum="8869.00" meanIntervalHaltingDuration="30.80" maxIntervalHaltingDuration="151.00" intervalHaltingDurationSum="8869.00" startedHalts="312.00" meanVehicleNumber="1.27" maxVehicleNumber="4" />
   <interval begin="0.00" end="8868.00" id="34_4" sampledSeconds="7790.55" nVehEntered="421" nVehLeft="421" nVehSeen="421" meanSpeed="1.10" meanTimeLoss="17.03" meanOccupancy="19.75" maxOccupancy="79.11" meanMaxJamLengthInVehicles="0.70" meanMaxJamLengthInMeters="3.71" maxJamLengthInVehicles="4" maxJamLengthInMeters="20.00" jamLengthInVehiclesSum="6216" jamLengthInMetersSum="32902.24" meanHaltingDuration="28.09" maxHaltingDuration="148.00" haltingDurationSum="6236.00" meanIntervalHaltingDuration="28.09" maxIntervalHaltingDuration="148.00" intervalHaltingDurationSum="6236.00" startedHalts="254.00" meanVehicleNumber="0.92" maxVehicleNumber="4" />
   <interval begin="0.00" end="8868.00" id="34_5" sampledSeconds="5553.18" nVehEntered="225" nVehLeft="225" nVehSeen="225" meanSpeed="0.93" meanTimeLoss="23.05" meanOccupancy="14.17" maxOccupancy="81.88" meanMaxJamLengthInVehicles="0.50" meanMaxJamLengthInMeters="2.63" maxJamLengthInVehicles="4" maxJamLengthInMeters="19.38" jamLengthInVehiclesSum="4414" jamLengthInMetersSum="23335.60" meanHaltingDuration="23.29" maxHaltingDuration="151.00" haltingDurationSum="4449.00" meanIntervalHaltingDuration="23.29" maxIntervalHaltingDuration="151.00" intervalHaltingDurationSum="4449.00" startedHalts="193.00" meanVehicleNumber="0.65" maxVehicleNumber="4" />
   <interval begin="0.00" end="8868.00" id="34_6" sampledSeconds="613.74" nVehEntered="287" nVehLeft="287" nVehSeen="287" meanSpeed="11.61" meanTimeLoss="0.30" meanOccupancy="1.33" maxOccupancy="38.48" meanMaxJamLengthInVehicles="0.00" meanMaxJamLengthInMeters="0.00" maxJamLengthInVehicles="0" maxJamLengthInMeters="0.00" jamLengthInVehiclesSum="0" jamLengthInMetersSum="0.00" meanHaltingDuration="0.00" maxHaltingDuration="0.00" haltingDurationSum="0.00" meanIntervalHaltingDuration="0.00" maxIntervalHaltingDuration="0.00" intervalHaltingDurationSum="0.00" startedHalts="0.00" meanVehicleNumber="0.10" maxVehicleNumber="2" />
   <interval begin="0.00" end="8868.00" id="34_7" sampledSeconds="1310.19" nVehEntered="608" nVehLeft="608" nVehSeen="608" meanSpeed="11.45" meanTimeLoss="0.35" meanOccupancy="2.89" maxOccupancy="60.00" meanMaxJamLengthInVehicles="0.00" meanMaxJamLengthInMeters="0.00" maxJamLengthInVehicles="0" maxJamLengthInMeters="0.00" jamLengthInVehiclesSum="0" jamLengthInMetersSum="0.00" meanHaltingDuration="0.00" maxHaltingDuration="0.00" haltingDurationSum="0.00" meanIntervalHaltingDuration="0.00" maxIntervalHaltingDuration="0.00" intervalHaltingDurationSum="0.00" startedHalts="0.00" meanVehicleNumber="0.21" maxVehicleNumber="3" />
   <interval begin="0.00" end="8868.00" id="34_8" sampledSeconds="706.81" nVehEntered="385" nVehLeft="385" nVehSeen="385" meanSpeed="12.50" meanTimeLoss="0.18" meanOccupancy="1.57" maxOccupancy="33.83" meanMaxJamLengthInVehicles="0.00" meanMaxJamLengthInMeters="0.00" maxJamLengthInVehicles="0" maxJamLengthInMeters="0.00" jamLengthInVehiclesSum="0" jamLengthInMetersSum="0.00" meanHaltingDuration="0.00" maxHaltingDuration="0.00" haltingDurationSum="0.00" meanIntervalHaltingDuration="0.00" maxIntervalHaltingDuration="0.00" intervalHaltingDurationSum="0.00" startedHalts="0.00" meanVehicleNumber="0.12" maxVehicleNumber="2" />
   <interval begin="0.00" end="8868.00" id="34_9" sampledSeconds="31.63" nVehEntered="43" nVehLeft="43" nVehSeen="43" meanSpeed="13.70" meanTimeLoss="0.06" meanOccupancy="0.03" maxOccupancy="25.00" meanMaxJamLengthInVehicles="0.00" meanMaxJamLengthInMeters="0.00" maxJamLengthInVehicles="0" maxJamLengthInMeters="0.00" jamLengthInVehiclesSum="0" jamLengthInMetersSum="0.00" meanHaltingDuration="0.00" maxHaltingDuration="0.00" haltingDurationSum="0.00" meanIntervalHaltingDuration="0.00" maxIntervalHaltingDuration="0.00" intervalHaltingDurationSum="0.00" startedHalts="0.00" meanVehicleNumber="0.01" maxVehicleNumber="1" />
   <interval begin="0.00" end="8868.00" id="34_10" sampledSeconds="1746.25" nVehEntered="228" nVehLeft="228" nVehSeen="228" meanSpeed="3.24" meanTimeLoss="5.70" meanOccupancy="4.35" maxOccupancy="77.45" meanMaxJamLengthInVehicles="0.09" meanMaxJamLengthInMeters="0.49" maxJamLengthInVehicles="4" maxJamLengthInMeters="19.98" jamLengthInVehiclesSum="825" jamLengthInMetersSum="4306.04" meanHaltingDuration="8.86" maxHaltingDuration="26.00" haltingDurationSum="930.00" meanIntervalHaltingDuration="8.86" maxIntervalHaltingDuration="26.00" intervalHaltingDurationSum="930.00" startedHalts="105.00" meanVehicleNumber="0.22" maxVehicleNumber="4" />
   <interval begin="0.00" end="8868.00" id="34_11" sampledSeconds="3206.88" nVehEntered="228" nVehLeft="228" nVehSeen="228" meanSpeed="13.14" meanTimeLoss="0.73" meanOccupancy="0.95" maxOccupancy="10.83" meanMaxJamLengthInVehicles="0.00" meanMaxJamLengthInMeters="0.00" maxJamLengthInVehicles="1" maxJamLengthInMeters="0.48" jamLengthInVehiclesSum="2" jamLengthInMetersSum="0.57" meanHaltingDuration="3.00" maxHaltingDuration="3.00" haltingDurationSum="3.00" meanIntervalHaltingDuration="3.00" maxIntervalHaltingDuration="3.00" intervalHaltingDurationSum="3.00" startedHalts="1.00" meanVehicleNumber="0.39" maxVehicleNumber="5" />
   <interval begin="0.00" end="8868.00" id="34_12" sampledSeconds="6127.14" nVehEntered="287" nVehLeft="287" nVehSeen="287" meanSpeed="6.20" meanTimeLoss="11.10" meanOccupancy="2.53" maxOccupancy="41.16" meanMaxJamLengthInVehicles="0.21" meanMaxJamLengthInMeters="1.20" maxJamLengthInVehicles="9" maxJamLengthInMeters="54.04" jamLengthInVehiclesSum="1882" jamLengthInMetersSum="10617.64" meanHaltingDuration="10.09" maxHaltingDuration="38.00" haltingDurationSum="2089.00" meanIntervalHaltingDuration="10.09" maxIntervalHaltingDuration="38.00" intervalHaltingDurationSum="2089.00" startedHalts="207.00" meanVehicleNumber="0.72" maxVehicleNumber="12" />
   <interval begin="0.00" end="8868.00" id="34_13" sampledSeconds="14768.84" nVehEntered="619" nVehLeft="619" nVehSeen="619" meanSpeed="3.01" meanTimeLoss="18.53" meanOccupancy="10.20" maxOccupancy="52.28" meanMaxJamLengthInVehicles="1.09" meanMaxJamLengthInMeters="6.22" maxJamLengthInVehicles="7" maxJamLengthInMeters="52.07" jamLengthInVehiclesSum="9630" jamLengthInMetersSum="55168.73" meanHaltingDuration="30.78" maxHaltingDuration="151.00" haltingDurationSum="9664.00" meanIntervalHaltingDuration="30.78" maxIntervalHaltingDuration="151.00" intervalHaltingDurationSum="9664.00" startedHalts="358.00" meanVehicleNumber="1.72" maxVehicleNumber="8" />
   <interval begin="0.00" end="8868.00" id="34_14" sampledSeconds="9742.07" nVehEntered="580" nVehLeft="580" nVehSeen="580" meanSpeed="3.05" meanTimeLoss="13.09" meanOccupancy="6.55" maxOccupancy="37.79" meanMaxJamLengthInVehicles="0.72" meanMaxJamLengthInMeters="3.99" maxJamLengthInVehicles="5" maxJamLengthInMeters="32.43" jamLengthInVehiclesSum="6381" jamLengthInMetersSum="35378.49" meanHaltingDuration="27.49" maxHaltingDuration="148.00" haltingDurationSum="6405.00" meanIntervalHaltingDuration="27.49" maxIntervalHaltingDuration="148.00" intervalHaltingDurationSum="6405.00" startedHalts="274.00" meanVehicleNumber="1.14" maxVehicleNumber="6" />
   <interval begin="0.00" end="8868.00" id="34_15" sampledSeconds="5982.52" nVehEntered="225" nVehLeft="225" nVehSeen="225" meanSpeed="1.34" meanTimeLoss="24.10" meanOccupancy="3.96" maxOccupancy="30.23" meanMaxJamLengthInVehicles="0.52" meanMaxJamLengthInMeters="2.84" maxJamLengthInVehicles="5" maxJamLengthInMeters="30.10" jamLengthInVehiclesSum="4594" jamLengthInMetersSum="25213.13" meanHaltingDuration="23.30" maxHaltingDuration="151.00" haltingDurationSum="4637.00" meanIntervalHaltingDuration="23.30" maxIntervalHaltingDuration="151.00" intervalHaltingDurationSum="4637.00" startedHalts="201.00" meanVehicleNumber="0.69" maxVehicleNumber="5" />
   <interval begin="0.00" end="8868.00" id="27_1" sampledSeconds="14092.29" nVehEntered="402" nVehLeft="402" nVehSeen="402" meanSpeed="0.70" meanTimeLoss="32.90" meanOccupancy="31.54" maxOccupancy="102.58" meanMaxJamLengthInVehicles="1.32" meanMaxJamLengthInMeters="6.57" maxJamLengthInVehicles="5" maxJamLengthInMeters="20.00" jamLengthInVehiclesSum="11716" jamLengthInMetersSum="58287.26" meanHaltingDuration="34.18" maxHaltingDuration="147.00" haltingDurationSum="11895.00" meanIntervalHaltingDuration="34.18" maxIntervalHaltingDuration="147.00" intervalHaltingDurationSum="11895.00" startedHalts="353.00" meanVehicleNumber="1.63" maxVehicleNumber="5" />
   <interval begin="0.00" end="8868.00" id="27_2" sampledSeconds="12804.99" nVehEntered="389" nVehLeft="389" nVehSeen="389" meanSpeed="0.71" meanTimeLoss="31.22" meanOccupancy="28.56" maxOccupancy="81.19" meanMaxJamLengthInVehicles="1.22" meanMaxJamLengthInMeters="6.02" maxJamLengthInVehicles="4" maxJamLengthInMeters="20.00" jamLengthInVehiclesSum="10792" jamLengthInMetersSum="53353.02" meanHaltingDuration="32.24" maxHaltingDuration="152.00" haltingDurationSum="10640.00" meanIntervalHaltingDuration="32.24" maxIntervalHaltingDuration="152.00" intervalHaltingDurationSum="10640.00" startedHalts="344.00" meanVehicleNumber="1.49" maxVehicleNumber="4" />
   <interval begin="0.00" end="8868.00" id="27_3" sampledSeconds="12052.21" nVehEntered="361" nVehLeft="361" nVehSeen="361" meanSpeed="0.73" meanTimeLoss="31.61" meanOccupancy="26.87" maxOccupancy="80.08" meanMaxJamLengthInVehicles="1.14" meanMaxJamLengthInMeters="5.66" maxJamLengthInVehicles="4" maxJamLengthInMeters="20.00" jamLengthInVehiclesSum="10140" jamLengthInMetersSum="50187.48" meanHaltingDuration="32.42" maxHaltingDuration="152.00" haltingDurationSum="10149.00" meanIntervalHaltingDuration="32.42" maxIntervalHaltingDuration="152.00" intervalHaltingDurationSum="10149.00" startedHalts="316.00" meanVehicleNumber="1.40" maxVehicleNumber="4" />
   <interval begin="0.00" end="8868.00" id="27_4" sampledSeconds="0.00" nVehEntered="0" nVehLeft="0" nVehSeen="0" meanSpeed="-1.00" meanTimeLoss="-1.00" meanOccupancy="0.00" maxOccupancy="0.00" meanMaxJamLengthInVehicles="0.00" meanMaxJamLengthInMeters="0.00" maxJamLengthInVehicles="0" maxJamLengthInMeters="0.00" jamLengthInVehiclesSum="0" jamLengthInMetersSum="0.00" meanHaltingDuration="0.00" maxHaltingDuration="0.00" haltingDurationSum="0.00" meanIntervalHaltingDuration="0.00" maxIntervalHaltingDuration="0.00" intervalHaltingDurationSum="0.00" startedHalts="0.00" meanVehicleNumber="0.00" maxVehicleNumber="0" />
   <interval begin="0.00" end="8868.00" id="27_5" sampledSeconds="505.63" nVehEntered="24" nVehLeft="24" nVehSeen="24" meanSpeed="1.06" meanTimeLoss="19.46" meanOccupancy="5.28" maxOccupancy="100.00" meanMaxJamLengthInVehicles="0.04" meanMaxJamLengthInMeters="0.45" maxJamLengthInVehicles="1" maxJamLengthInMeters="10.38" jamLengthInVehiclesSum="384" jamLengthInMetersSum="3984.96" meanHaltingDuration="23.59" maxHaltingDuration="104.00" haltingDurationSum="401.00" meanIntervalHaltingDuration="23.59" maxIntervalHaltingDuration="104.00" intervalHaltingDurationSum="401.00" startedHalts="17.00" meanVehicleNumber="0.06" maxVehicleNumber="1" />
   <interval begin="0.00" end="8868.00" id="27_6" sampledSeconds="0.00" nVehEntered="0" nVehLeft="0" nVehSeen="0" meanSpeed="-1.00" meanTimeLoss="-1.00" meanOccupancy="0.00" maxOccupancy="0.00" meanMaxJamLengthInVehicles="0.00" meanMaxJamLengthInMeters="0.00" maxJamLengthInVehicles="0" maxJamLengthInMeters="0.00" jamLengthInVehiclesSum="0" jamLengthInMetersSum="0.00" meanHaltingDuration="0.00" maxHaltingDuration="0.00" haltingDurationSum="0.00" meanIntervalHaltingDuration="0.00" maxIntervalHaltingDuration="0.00" intervalHaltingDurationSum="0.00" startedHalts="0.00" meanVehicleNumber="0.00" maxVehicleNumber="0" />
   <interval begin="0.00" end="8868.00" id="27_7" sampledSeconds="11982.67" nVehEntered="420" nVehLeft="420" nVehSeen="420" meanSpeed="0.85" meanTimeLoss="26.74" meanOccupancy="29.57" maxOccupancy="82.98" meanMaxJamLengthInVehicles="1.12" meanMaxJamLengthInMeters="5.94" maxJamLengthInVehicles="4" maxJamLengthInMeters="20.00" jamLengthInVehiclesSum="9890" jamLengthInMetersSum="52709.83" meanHaltingDuration="30.75" maxHaltingDuration="152.00" haltingDurationSum="9901.00" meanIntervalHaltingDuration="30.75" maxIntervalHaltingDuration="152.00" intervalHaltingDurationSum="9901.00" startedHalts="330.00" meanVehicleNumber="1.40" maxVehicleNumber="4" />
   <interval begin="0.00" end="8868.00" id="27_8" sampledSeconds="11184.89" nVehEntered="381" nVehLeft="381" nVehSeen="381" meanSpeed="0.83" meanTimeLoss="27.60" meanOccupancy="26.34" maxOccupancy="79.78" meanMaxJamLengthInVehicles="1.04" meanMaxJamLengthInMeters="5.34" maxJamLengthInVehicles="4" maxJamLengthInMeters="20.00" jamLengthInVehiclesSum="9239" jamLengthInMetersSum="47365.41" meanHaltingDuration="31.37" maxHaltingDuration="151.00" haltingDurationSum="9381.00" meanIntervalHaltingDuration="31.37" maxIntervalHaltingDuration="151.00" intervalHaltingDurationSum="9381.00" startedHalts="302.00" meanVehicleNumber="1.30" maxVehicleNumber="4" />
   <interval begin="0.00" end="8868.00" id="27_9" sampledSeconds="1116.73" nVehEntered="39" nVehLeft="39" nVehSeen="39" meanSpeed="0.86" meanTimeLoss="26.81" meanOccupancy="3.00" maxOccupancy="75.00" meanMaxJamLengthInVehicles="0.10" meanMaxJamLengthInMeters="0.56" maxJamLengthInVehicles="3" maxJamLengthInMeters="18.04" jamLengthInVehiclesSum="928" jamLengthInMetersSum="4964.58" meanHaltingDuration="29.12" maxHaltingDuration="97.00" haltingDurationSum="961.00" meanIntervalHaltingDuration="29.12" maxIntervalHaltingDuration="97.00" intervalHaltingDurationSum="961.00" startedHalts="33.00" meanVehicleNumber="0.13" maxVehicleNumber="3" />
   <interval begin="0.00" end="8868.00" id="27_10" sampledSeconds="4935.06" nVehEntered="191" nVehLeft="191" nVehSeen="191" meanSpeed="0.96" meanTimeLoss="23.79" meanOccupancy="12.01" maxOccupancy="77.47" meanMaxJamLengthInVehicles="0.45" meanMaxJamLengthInMeters="2.34" maxJamLengthInVehicles="4" maxJamLengthInMeters="19.01" jamLengthInVehiclesSum="3969" jamLengthInMetersSum="20754.15" meanHaltingDuration="28.37" maxHaltingDuration="112.00" haltingDurationSum="4114.00" meanIntervalHaltingDuration="28.37" maxIntervalHaltingDuration="112.00" intervalHaltingDurationSum="4114.00" startedHalts="145.00" meanVehicleNumber="0.58" maxVehicleNumber="4" />
   <interval begin="0.00" end="8868.00" id="27_11" sampledSeconds="1400.61" nVehEntered="49" nVehLeft="49" nVehSeen="49" meanSpeed="1.01" meanTimeLoss="26.47" meanOccupancy="6.58" maxOccupancy="84.96" meanMaxJamLengthInVehicles="0.13" meanMaxJamLengthInMeters="1.17" maxJamLengthInVehicles="2" maxJamLengthInMeters="19.01" jamLengthInVehiclesSum="1128" jamLengthInMetersSum="10364.27" meanHaltingDuration="30.68" maxHaltingDuration="136.00" haltingDurationSum="1166.00" meanIntervalHaltingDuration="30.68" maxIntervalHaltingDuration="136.00" intervalHaltingDurationSum="1166.00" startedHalts="38.00" meanVehicleNumber="0.16" maxVehicleNumber="2" />
   <interval begin="0.00" end="8868.00" id="27_12" sampledSeconds="6695.39" nVehEntered="155" nVehLeft="155" nVehSeen="155" meanSpeed="0.58" meanTimeLoss="41.24" meanOccupancy="16.32" maxOccupancy="79.49" meanMaxJamLengthInVehicles="0.65" meanMaxJamLengthInMeters="3.43" maxJamLengthInVehicles="4" maxJamLengthInMeters="19.91" jamLengthInVehiclesSum="5790" jamLengthInMetersSum="30402.07" meanHaltingDuration="38.77" maxHaltingDuration="149.00" haltingDurationSum="5932.00" meanIntervalHaltingDuration="38.77" maxIntervalHaltingDuration="149.00" intervalHaltingDurationSum="5932.00" startedHalts="158.00" meanVehicleNumber="0.77" maxVehicleNumber="4" />
   <interval begin="0.00" end="8868.00" id="27_13" sampledSeconds="8671.71" nVehEntered="472" nVehLeft="472" nVehSeen="472" meanSpeed="1.29" meanTimeLoss="16.63" meanOccupancy="19.42" maxOccupancy="83.97" meanMaxJamLengthInVehicles="0.76" meanMaxJamLengthInMeters="3.69" maxJamLengthInVehicles="4" maxJamLengthInMeters="20.00" jamLengthInVehiclesSum="6703" jamLengthInMetersSum="32717.43" meanHaltingDuration="30.03" maxHaltingDuration="135.00" haltingDurationSum="6246.00" meanIntervalHaltingDuration="30.03" maxIntervalHaltingDuration="135.00" intervalHaltingDurationSum="6246.00" startedHalts="249.00" meanVehicleNumber="1.03" maxVehicleNumber="4" />
   <interval begin="0.00" end="8868.00" id="27_14" sampledSeconds="6674.92" nVehEntered="680" nVehLeft="680" nVehSeen="680" meanSpeed="1.98" meanTimeLoss="8.40" meanOccupancy="14.80" maxOccupancy="79.95" meanMaxJamLengthInVehicles="0.54" meanMaxJamLengthInMeters="2.61" maxJamLengthInVehicles="4" maxJamLengthInMeters="20.00" jamLengthInVehiclesSum="4829" jamLengthInMetersSum="23137.56" meanHaltingDuration="24.62" maxHaltingDuration="168.00" haltingDurationSum="3693.00" meanIntervalHaltingDuration="24.62" maxIntervalHaltingDuration="168.00" intervalHaltingDurationSum="3693.00" startedHalts="219.00" meanVehicleNumber="0.81" maxVehicleNumber="4" />
   <interval begin="0.00" end="8868.00" id="27_15" sampledSeconds="4502.23" nVehEntered="221" nVehLeft="221" nVehSeen="221" meanSpeed="0.72" meanTimeLoss="19.30" meanOccupancy="9.54" maxOccupancy="77.48" meanMaxJamLengthInVehicles="0.43" meanMaxJamLengthInMeters="2.00" maxJamLengthInVehicles="4" maxJamLengthInMeters="20.00" jamLengthInVehiclesSum="3775" jamLengthInMetersSum="17754.80" meanHaltingDuration="30.66" maxHaltingDuration="164.00" haltingDurationSum="3465.00" meanIntervalHaltingDuration="30.66" maxIntervalHaltingDuration="164.00" intervalHaltingDurationSum="3465.00" startedHalts="134.00" meanVehicleNumber="0.52" maxVehicleNumber="4" />
   <interval begin="0.00" end="8868.00" id="27_16" sampledSeconds="856.63" nVehEntered="386" nVehLeft="386" nVehSeen="386" meanSpeed="10.91" meanTimeLoss="0.43" meanOccupancy="1.91" maxOccupancy="60.00" meanMaxJamLengthInVehicles="0.00" meanMaxJamLengthInMeters="0.00" maxJamLengthInVehicles="0" maxJamLengthInMeters="0.00" jamLengthInVehiclesSum="0" jamLengthInMetersSum="0.00" meanHaltingDuration="0.00" maxHaltingDuration="0.00" haltingDurationSum="0.00" meanIntervalHaltingDuration="0.00" maxIntervalHaltingDuration="0.00" intervalHaltingDurationSum="0.00" startedHalts="0.00" meanVehicleNumber="0.14" maxVehicleNumber="2" />
   <interval begin="0.00" end="8868.00" id="27_17" sampledSeconds="746.57" nVehEntered="356" nVehLeft="356" nVehSeen="356" meanSpeed="11.34" meanTimeLoss="0.39" meanOccupancy="1.62" maxOccupancy="50.00" meanMaxJamLengthInVehicles="0.00" meanMaxJamLengthInMeters="0.00" maxJamLengthInVehicles="0" maxJamLengthInMeters="0.00" jamLengthInVehiclesSum="0" jamLengthInMetersSum="0.00" meanHaltingDuration="0.00" maxHaltingDuration="0.00" haltingDurationSum="0.00" meanIntervalHaltingDuration="0.00" maxIntervalHaltingDuration="0.00" intervalHaltingDurationSum="0.00" startedHalts="0.00" meanVehicleNumber="0.12" maxVehicleNumber="3" />
   <interval begin="0.00" end="8868.00" id="27_18" sampledSeconds="240.83" nVehEntered="118" nVehLeft="118" nVehSeen="118" meanSpeed="11.08" meanTimeLoss="0.38" meanOccupancy="0.52" maxOccupancy="36.50" meanMaxJamLengthInVehicles="0.00" meanMaxJamLengthInMeters="0.00" maxJamLengthInVehicles="0" maxJamLengthInMeters="0.00" jamLengthInVehiclesSum="0" jamLengthInMetersSum="0.00" meanHaltingDuration="0.00" maxHaltingDuration="0.00" haltingDurationSum="0.00" meanIntervalHaltingDuration="0.00" maxIntervalHaltingDuration="0.00" intervalHaltingDurationSum="0.00" startedHalts="0.00" meanVehicleNumber="0.04" maxVehicleNumber="2" />
   <interval begin="0.00" end="8868.00" id="27_19" sampledSeconds="1031.93" nVehEntered="395" nVehLeft="395" nVehSeen="395" meanSpeed="9.71" meanTimeLoss="0.77" meanOccupancy="2.44" maxOccupancy="75.00" meanMaxJamLengthInVehicles="0.01" meanMaxJamLengthInMeters="0.07" maxJamLengthInVehicles="3" maxJamLengthInMeters="18.84" jamLengthInVehiclesSum="100" jamLengthInMetersSum="587.90" meanHaltingDuration="25.75" maxHaltingDuration="34.00" haltingDurationSum="103.00" meanIntervalHaltingDuration="25.75" maxIntervalHaltingDuration="34.00" intervalHaltingDurationSum="103.00" startedHalts="5.00" meanVehicleNumber="0.16" maxVehicleNumber="4" />
   <interval begin="0.00" end="8868.00" id="27_20" sampledSeconds="38434.53" nVehEntered="480" nVehLeft="480" nVehSeen="480" meanSpeed="0.92" meanTimeLoss="74.37" meanOccupancy="26.52" maxOccupancy="80.48" meanMaxJamLengthInVehicles="3.44" meanMaxJamLengthInMeters="21.28" maxJamLengthInVehicles="13" maxJamLengthInMeters="79.52" jamLengthInVehiclesSum="30809" jamLengthInMetersSum="190450.05" meanHaltingDuration="32.33" maxHaltingDuration="147.00" haltingDurationSum="31557.00" meanIntervalHaltingDuration="32.33" maxIntervalHaltingDuration="147.00" intervalHaltingDurationSum="31557.00" startedHalts="1001.00" meanVehicleNumber="4.38" maxVehicleNumber="13" />
   <interval begin="0.00" end="8868.00" id="27_21" sampledSeconds="32715.43" nVehEntered="742" nVehLeft="742" nVehSeen="742" meanSpeed="1.12" meanTimeLoss="40.49" meanOccupancy="22.21" maxOccupancy="79.23" meanMaxJamLengthInVehicles="2.89" meanMaxJamLengthInMeters="17.55" maxJamLengthInVehicles="14" maxJamLengthInMeters="79.52" jamLengthInVehiclesSum="26086" jamLengthInMetersSum="157974.14" meanHaltingDuration="30.19" maxHaltingDuration="174.00" haltingDurationSum="25993.00" meanIntervalHaltingDuration="30.19" maxIntervalHaltingDuration="174.00" intervalHaltingDurationSum="25993.00" startedHalts="944.00" meanVehicleNumber="3.75" maxVehicleNumber="14" />
   <interval begin="0.00" end="8868.00" id="27_22" sampledSeconds="28501.89" nVehEntered="366" nVehLeft="366" nVehSeen="366" meanSpeed="0.76" meanTimeLoss="73.54" meanOccupancy="19.31" maxOccupancy="78.60" meanMaxJamLengthInVehicles="2.64" meanMaxJamLengthInMeters="16.05" maxJamLengthInVehicles="13" maxJamLengthInMeters="79.51" jamLengthInVehiclesSum="23640" jamLengthInMetersSum="143710.17" meanHaltingDuration="32.15" maxHaltingDuration="172.00" haltingDurationSum="24077.00" meanIntervalHaltingDuration="32.15" maxIntervalHaltingDuration="172.00" intervalHaltingDurationSum="24077.00" startedHalts="755.00" meanVehicleNumber="3.24" maxVehicleNumber="13" />
   <interval begin="0.00" end="8868.00" id="27_23" sampledSeconds="0.00" nVehEntered="0" nVehLeft="0" nVehSeen="0" meanSpeed="-1.00" meanTimeLoss="-1.00" meanOccupancy="0.00" maxOccupancy="0.00" meanMaxJamLengthInVehicles="0.00" meanMaxJamLengthInMeters="0.00" maxJamLengthInVehicles="0" maxJamLengthInMeters="0.00" jamLengthInVehiclesSum="0" jamLengthInMetersSum="0.00" meanHaltingDuration="0.00" maxHaltingDuration="0.00" haltingDurationSum="0.00" meanIntervalHaltingDuration="0.00" maxIntervalHaltingDuration="0.00" intervalHaltingDurationSum="0.00" startedHalts="0.00" meanVehicleNumber="0.00" maxVehicleNumber="0" />
   <interval begin="0.00" end="8868.00" id="27_24" sampledSeconds="505.63" nVehEntered="24" nVehLeft="24" nVehSeen="24" meanSpeed="1.06" meanTimeLoss="19.46" meanOccupancy="5.28" maxOccupancy="100.00" meanMaxJamLengthInVehicles="0.04" meanMaxJamLengthInMeters="0.45" maxJamLengthInVehicles="1" maxJamLengthInMeters="10.38" jamLengthInVehiclesSum="384" jamLengthInMetersSum="3984.96" meanHaltingDuration="23.59" maxHaltingDuration="104.00" haltingDurationSum="401.00" meanIntervalHaltingDuration="23.59" maxIntervalHaltingDuration="104.00" intervalHaltingDurationSum="401.00" startedHalts="17.00" meanVehicleNumber="0.06" maxVehicleNumber="1" />
   <interval begin="0.00" end="8868.00" id="27_25" sampledSeconds="0.00" nVehEntered="0" nVehLeft="0" nVehSeen="0" meanSpeed="-1.00" meanTimeLoss="-1.00" meanOccupancy="0.00" maxOccupancy="0.00" meanMaxJamLengthInVehicles="0.00" meanMaxJamLengthInMeters="0.00" maxJamLengthInVehicles="0" maxJamLengthInMeters="0.00" jamLengthInVehiclesSum="0" jamLengthInMetersSum="0.00" meanHaltingDuration="0.00" maxHaltingDuration="0.00" haltingDurationSum="0.00" meanIntervalHaltingDuration="0.00" maxIntervalHaltingDuration="0.00" intervalHaltingDurationSum="0.00" startedHalts="0.00" meanVehicleNumber="0.00" maxVehicleNumber="0" />
   <interval begin="0.00" end="8868.00" id="27_26" sampledSeconds="1192.13" nVehEntered="24" nVehLeft="24" nVehSeen="24" meanSpeed="3.39" meanTimeLoss="37.56" meanOccupancy="0.98" maxOccupancy="23.05" meanMaxJamLengthInVehicles="0.07" meanMaxJamLengthInMeters="0.94" maxJamLengthInVehicles="3" maxJamLengthInMeters="42.12" jamLengthInVehiclesSum="661" jamLengthInMetersSum="8304.15" meanHaltingDuration="19.36" maxHaltingDuration="25.00" haltingDurationSum="697.00" meanIntervalHaltingDuration="19.36" maxIntervalHaltingDuration="25.00" intervalHaltingDurationSum="697.00" startedHalts="36.00" meanVehicleNumber="0.14" maxVehicleNumber="3" />
   <interval begin="0.00" end="8868.00" id="27_27" sampledSeconds="0.00" nVehEntered="0" nVehLeft="0" nVehSeen="0" meanSpeed="-1.00" meanTimeLoss="-1.00" meanOccupancy="0.00" maxOccupancy="0.00" meanMaxJamLengthInVehicles="0.00" meanMaxJamLengthInMeters="0.00" maxJamLengthInVehicles="0" maxJamLengthInMeters="0.00" jamLengthInVehiclesSum="0" jamLengthInMetersSum="0.00" meanHaltingDuration="0.00" maxHaltingDuration="0.00" haltingDurationSum="0.00" meanIntervalHaltingDuration="0.00" maxIntervalHaltingDuration="0.00" intervalHaltingDurationSum="0.00" startedHalts="0.00" meanVehicleNumber="0.00" maxVehicleNumber="0" />
   <interval begin="0.00" end="8868.00" id="27_28" sampledSeconds="20178.20" nVehEntered="465" nVehLeft="465" nVehSeen="465" meanSpeed="1.31" meanTimeLoss="39.20" meanOccupancy="19.43" maxOccupancy="80.56" meanMaxJamLengthInVehicles="1.77" meanMaxJamLengthInMeters="10.71" maxJamLengthInVehicles="10" maxJamLengthInMeters="57.10" jamLengthInVehiclesSum="15765" jamLengthInMetersSum="95139.72" meanHaltingDuration="30.12" maxHaltingDuration="152.00" haltingDurationSum="15964.00" meanIntervalHaltingDuration="30.12" maxIntervalHaltingDuration="152.00" intervalHaltingDurationSum="15964.00" startedHalts="545.00" meanVehicleNumber="2.32" maxVehicleNumber="10" />