<?xml version="1.0" encoding="UTF-8"?>

<!-- generated on 2025-10-10 10:20:05 by Eclipse SUMO libsumo Version 1.24.0
<libsumoConfiguration xmlns:xsi="http://www.w3.org/2001/XMLSchema-instance" xsi:noNamespaceSchemaLocation="http://sumo.dlr.de/xsd/libsumoConfiguration.xsd">

    <input>
        <net-file value="/home/ddailisan/sumo-experiments/src/sumo_experiments/preset_networks/bologna/acosta/acosta_buslanes.net.xml"/>
        <route-files value="/home/ddailisan/sumo-experiments/src/sumo_experiments/preset_networks/bologna/acosta/acosta_6015.rou.xml,/home/ddailisan/sumo-experiments/src/sumo_experiments/preset_networks/bologna/acosta/acosta_busses.rou.xml"/>
        <additional-files value="/home/ddailisan/sumo-experiments/src/sumo_experiments/preset_networks/bologna/acosta/acosta_tls.add.xml,/home/ddailisan/sumo-experiments/src/sumo_experiments/preset_networks/bologna/acosta/acosta_vtypes.add.xml,/home/ddailisan/sumo-experiments/src/sumo_experiments/preset_networks/bologna/acosta/acosta_detectors.add.xml,/home/ddailisan/sumo-experiments/src/sumo_experiments/preset_networks/bologna/acosta/acosta_bus_stops.add.xml"/>
    </input>

    <output>
        <tripinfo-output value="/home/ddailisan/sumo-experiments/src/sumo_experiments/preset_networks/bologna/acosta/tripinfos.xml"/>
    </output>

    <processing>
        <time-to-teleport value="-1"/>
    </processing>

    <report>
        <verbose value="true"/>
        <no-warnings value="true"/>
        <log value="/home/ddailisan/sumo-experiments/src/sumo_experiments/preset_networks/bologna/acosta/sumo_log.txt"/>
        <no-step-log value="true"/>
    </report>

    <gui_only>
        <gui-settings-file value="/home/ddailisan/sumo-experiments/src/sumo_experiments/preset_networks/bologna/acosta/settings.gui.xml"/>
    </gui_only>

</libsumoConfiguration>
-->

<detector xmlns:xsi="http://www.w3.org/2001/XMLSchema-instance" xsi:noNamespaceSchemaLocation="http://sumo.dlr.de/xsd/det_e2_file.xsd">
   <interval begin="0.00" end="100000.00" id="34_1" sampledSeconds="7006.92" nVehEntered="339" nVehLeft="339" nVehSeen="339" meanSpeed="1.20" meanTimeLoss="18.70" meanOccupancy="1.41" maxOccupancy="82.38" meanMaxJamLengthInVehicles="0.06" meanMaxJamLengthInMeters="0.30" maxJamLengthInVehicles="4" maxJamLengthInMeters="20.00" jamLengthInVehiclesSum="5852" jamLengthInMetersSum="29689.01" meanHaltingDuration="65.31" maxHaltingDuration="169.00" haltingDurationSum="5943.00" meanIntervalHaltingDuration="65.31" maxIntervalHaltingDuration="169.00" intervalHaltingDurationSum="5943.00" startedHalts="91.00" meanVehicleNumber="0.07" maxVehicleNumber="4" />
   <interval begin="0.00" end="100000.00" id="34_2" sampledSeconds="7359.19" nVehEntered="399" nVehLeft="399" nVehSeen="399" meanSpeed="1.35" meanTimeLoss="16.10" meanOccupancy="1.47" maxOccupancy="82.68" meanMaxJamLengthInVehicles="0.06" meanMaxJamLengthInMeters="0.28" maxJamLengthInVehicles="4" maxJamLengthInMeters="19.54" jamLengthInVehiclesSum="5569" jamLengthInMetersSum="27617.22" meanHaltingDuration="61.53" maxHaltingDuration="175.00" haltingDurationSum="5661.00" meanIntervalHaltingDuration="61.53" maxIntervalHaltingDuration="175.00" intervalHaltingDurationSum="5661.00" startedHalts="92.00" meanVehicleNumber="0.08" maxVehicleNumber="4" />
   <interval begin="0.00" end="100000.00" id="34_3" sampledSeconds="3537.43" nVehEntered="679" nVehLeft="679" nVehSeen="679" meanSpeed="4.47" meanTimeLoss="3.41" meanOccupancy="0.75" maxOccupancy="85.00" meanMaxJamLengthInVehicles="0.02" meanMaxJamLengthInMeters="0.09" maxJamLengthInVehicles="4" maxJamLengthInMeters="20.00" jamLengthInVehiclesSum="1630" jamLengthInMetersSum="8511.24" meanHaltingDuration="17.04" maxHaltingDuration="85.00" haltingDurationSum="1721.00" meanIntervalHaltingDuration="17.04" maxIntervalHaltingDuration="85.00" intervalHaltingDurationSum="1721.00" startedHalts="108.00" meanVehicleNumber="0.04" maxVehicleNumber="4" />
   <interval begin="0.00" end="100000.00" id="34_4" sampledSeconds="2602.87" nVehEntered="596" nVehLeft="596" nVehSeen="596" meanSpeed="5.11" meanTimeLoss="2.75" meanOccupancy="0.55" maxOccupancy="76.88" meanMaxJamLengthInVehicles="0.01" meanMaxJamLengthInMeters="0.06" maxJamLengthInVehicles="4" maxJamLengthInMeters="19.38" jamLengthInVehiclesSum="1231" jamLengthInMetersSum="6333.80" meanHaltingDuration="17.82" maxHaltingDuration="82.00" haltingDurationSum="1301.00" meanIntervalHaltingDuration="17.82" maxIntervalHaltingDuration="82.00" intervalHaltingDurationSum="1301.00" startedHalts="81.00" meanVehicleNumber="0.03" maxVehicleNumber="4" />
   <interval begin="0.00" end="100000.00" id="34_5" sampledSeconds="1451.29" nVehEntered="230" nVehLeft="230" nVehSeen="230" meanSpeed="3.62" meanTimeLoss="4.75" meanOccupancy="0.30" maxOccupancy="79.38" meanMaxJamLengthInVehicles="0.01" meanMaxJamLengthInMeters="0.04" maxJamLengthInVehicles="4" maxJamLengthInMeters="20.00" jamLengthInVehiclesSum="850" jamLengthInMetersSum="4386.30" meanHaltingDuration="17.35" maxHaltingDuration="65.00" haltingDurationSum="902.00" meanIntervalHaltingDuration="17.35" maxIntervalHaltingDuration="65.00" intervalHaltingDurationSum="902.00" startedHalts="52.00" meanVehicleNumber="0.02" maxVehicleNumber="4" />
   <interval begin="0.00" end="100000.00" id="34_6" sampledSeconds="1552.55" nVehEntered="399" nVehLeft="399" nVehSeen="399" meanSpeed="6.38" meanTimeLoss="2.08" meanOccupancy="0.30" maxOccupancy="79.98" meanMaxJamLengthInVehicles="0.01" meanMaxJamLengthInMeters="0.03" maxJamLengthInVehicles="4" maxJamLengthInMeters="20.00" jamLengthInVehiclesSum="595" jamLengthInMetersSum="2704.98" meanHaltingDuration="25.05" maxHaltingDuration="90.00" haltingDurationSum="476.00" meanIntervalHaltingDuration="25.05" maxIntervalHaltingDuration="90.00" intervalHaltingDurationSum="476.00" startedHalts="22.00" meanVehicleNumber="0.02" maxVehicleNumber="4" />
   <interval begin="0.00" end="100000.00" id="34_7" sampledSeconds="1818.40" nVehEntered="828" nVehLeft="828" nVehSeen="828" meanSpeed="11.15" meanTimeLoss="0.39" meanOccupancy="0.35" maxOccupancy="60.00" meanMaxJamLengthInVehicles="0.00" meanMaxJamLengthInMeters="0.00" maxJamLengthInVehicles="0" maxJamLengthInMeters="0.00" jamLengthInVehiclesSum="0" jamLengthInMetersSum="0.00" meanHaltingDuration="0.00" maxHaltingDuration="0.00" haltingDurationSum="0.00" meanIntervalHaltingDuration="0.00" maxIntervalHaltingDuration="0.00" intervalHaltingDurationSum="0.00" startedHalts="0.00" meanVehicleNumber="0.03" maxVehicleNumber="2" />
   <interval begin="0.00" end="100000.00" id="34_8" sampledSeconds="1060.57" nVehEntered="591" nVehLeft="591" nVehSeen="591" meanSpeed="12.68" meanTimeLoss="0.17" meanOccupancy="0.21" maxOccupancy="47.50" meanMaxJamLengthInVehicles="0.00" meanMaxJamLengthInMeters="0.00" maxJamLengthInVehicles="0" maxJamLengthInMeters="0.00" jamLengthInVehiclesSum="0" jamLengthInMetersSum="0.00" meanHaltingDuration="0.00" maxHaltingDuration="0.00" haltingDurationSum="0.00" meanIntervalHaltingDuration="0.00" maxIntervalHaltingDuration="0.00" intervalHaltingDurationSum="0.00" startedHalts="0.00" meanVehicleNumber="0.02" maxVehicleNumber="2" />
   <interval begin="0.00" end="100000.00" id="34_9" sampledSeconds="47.06" nVehEntered="69" nVehLeft="69" nVehSeen="69" meanSpeed="13.81" meanTimeLoss="0.06" meanOccupancy="0.00" maxOccupancy="25.00" meanMaxJamLengthInVehicles="0.00" meanMaxJamLengthInMeters="0.00" maxJamLengthInVehicles="0" maxJamLengthInMeters="0.00" jamLengthInVehiclesSum="0" jamLengthInMetersSum="0.00" meanHaltingDuration="0.00" maxHaltingDuration="0.00" haltingDurationSum="0.00" meanIntervalHaltingDuration="0.00" maxIntervalHaltingDuration="0.00" intervalHaltingDurationSum="0.00" startedHalts="0.00" meanVehicleNumber="0.00" maxVehicleNumber="1" />
   <interval begin="0.00" end="100000.00" id="34_10" sampledSeconds="7006.11" nVehEntered="339" nVehLeft="339" nVehSeen="339" meanSpeed="1.20" meanTimeLoss="18.70" meanOccupancy="1.42" maxOccupancy="82.46" meanMaxJamLengthInVehicles="0.06" meanMaxJamLengthInMeters="0.30" maxJamLengthInVehicles="4" maxJamLengthInMeters="19.98" jamLengthInVehiclesSum="5852" jamLengthInMetersSum="29688.95" meanHaltingDuration="65.31" maxHaltingDuration="169.00" haltingDurationSum="5943.00" meanIntervalHaltingDuration="65.31" maxIntervalHaltingDuration="169.00" intervalHaltingDurationSum="5943.00" startedHalts="91.00" meanVehicleNumber="0.07" maxVehicleNumber="4" />
   <interval begin="0.00" end="100000.00" id="34_11" sampledSeconds="10425.24" nVehEntered="339" nVehLeft="339" nVehSeen="339" meanSpeed="6.01" meanTimeLoss="17.45" meanOccupancy="0.27" maxOccupancy="43.31" meanMaxJamLengthInVehicles="0.05" meanMaxJamLengthInMeters="0.28" maxJamLengthInVehicles="17" maxJamLengthInMeters="100.06" jamLengthInVehiclesSum="4998" jamLengthInMetersSum="28258.14" meanHaltingDuration="40.55" maxHaltingDuration="125.00" haltingDurationSum="4826.00" meanIntervalHaltingDuration="40.55" maxIntervalHaltingDuration="125.00" intervalHaltingDurationSum="4826.00" startedHalts="131.00" meanVehicleNumber="0.11" maxVehicleNumber="17" />
   <interval begin="0.00" end="100000.00" id="34_12" sampledSeconds="21062.54" nVehEntered="399" nVehLeft="399" nVehSeen="399" meanSpeed="2.51" meanTimeLoss="42.64" meanOccupancy="0.79" maxOccupancy="78.01" meanMaxJamLengthInVehicles="0.14" meanMaxJamLengthInMeters="0.86" maxJamLengthInVehicles="21" maxJamLengthInMeters="126.57" jamLengthInVehiclesSum="14197" jamLengthInMetersSum="85542.69" meanHaltingDuration="50.81" maxHaltingDuration="175.00" haltingDurationSum="14482.00" meanIntervalHaltingDuration="50.81" maxIntervalHaltingDuration="175.00" intervalHaltingDurationSum="14482.00" startedHalts="285.00" meanVehicleNumber="0.21" maxVehicleNumber="21" />
   <interval begin="0.00" end="100000.00" id="34_13" sampledSeconds="7797.09" nVehEntered="838" nVehLeft="838" nVehSeen="838" meanSpeed="7.95" meanTimeLoss="3.79" meanOccupancy="0.46" maxOccupancy="49.13" meanMaxJamLengthInVehicles="0.02" meanMaxJamLengthInMeters="0.10" maxJamLengthInVehicles="7" maxJamLengthInMeters="43.01" jamLengthInVehiclesSum="1741" jamLengthInMetersSum="9894.58" meanHaltingDuration="16.70" maxHaltingDuration="85.00" haltingDurationSum="1837.00" meanIntervalHaltingDuration="16.70" maxIntervalHaltingDuration="85.00" intervalHaltingDurationSum="1837.00" startedHalts="121.00" meanVehicleNumber="0.08" maxVehicleNumber="8" />
   <interval begin="0.00" end="100000.00" id="34_14" sampledSeconds="5209.20" nVehEntered="772" nVehLeft="772" nVehSeen="772" meanSpeed="8.58" meanTimeLoss="2.59" meanOccupancy="0.30" maxOccupancy="42.20" meanMaxJamLengthInVehicles="0.01" meanMaxJamLengthInMeters="0.07" maxJamLengthInVehicles="7" maxJamLengthInMeters="41.59" jamLengthInVehiclesSum="1319" jamLengthInMetersSum="7292.09" meanHaltingDuration="17.45" maxHaltingDuration="82.00" haltingDurationSum="1396.00" meanIntervalHaltingDuration="17.45" maxIntervalHaltingDuration="82.00" intervalHaltingDurationSum="1396.00" startedHalts="91.00" meanVehicleNumber="0.06" maxVehicleNumber="8" />
   <interval begin="0.00" end="100000.00" id="34_15" sampledSeconds="1884.14" nVehEntered="230" nVehLeft="230" nVehSeen="230" meanSpeed="5.22" meanTimeLoss="5.29" meanOccupancy="0.10" maxOccupancy="37.16" meanMaxJamLengthInVehicles="0.01" meanMaxJamLengthInMeters="0.05" maxJamLengthInVehicles="6" maxJamLengthInMeters="37.03" jamLengthInVehiclesSum="923" jamLengthInMetersSum="5158.19" meanHaltingDuration="16.38" maxHaltingDuration="65.00" haltingDurationSum="983.00" meanIntervalHaltingDuration="16.38" maxIntervalHaltingDuration="65.00" intervalHaltingDurationSum="983.00" startedHalts="60.00" meanVehicleNumber="0.02" maxVehicleNumber="7" />
   <interval begin="0.00" end="100000.00" id="27_1" sampledSeconds="8812.66" nVehEntered="602" nVehLeft="602" nVehSeen="602" meanSpeed="1.63" meanTimeLoss="12.53" meanOccupancy="1.75" maxOccupancy="82.50" meanMaxJamLengthInVehicles="0.06" meanMaxJamLengthInMeters="0.31" maxJamLengthInVehicles="4" maxJamLengthInMeters="20.00" jamLengthInVehiclesSum="6347" jamLengthInMetersSum="31419.16" meanHaltingDuration="46.28" maxHaltingDuration="102.00" haltingDurationSum="6479.00" meanIntervalHaltingDuration="46.28" maxIntervalHaltingDuration="102.00" intervalHaltingDurationSum="6479.00" startedHalts="146.00" meanVehicleNumber="0.09" maxVehicleNumber="4" />
   <interval begin="0.00" end="100000.00" id="27_2" sampledSeconds="7172.51" nVehEntered="706" nVehLeft="706" nVehSeen="706" meanSpeed="2.30" meanTimeLoss="8.46" meanOccupancy="1.42" maxOccupancy="80.08" meanMaxJamLengthInVehicles="0.05" meanMaxJamLengthInMeters="0.26" maxJamLengthInVehicles="4" maxJamLengthInMeters="20.00" jamLengthInVehiclesSum="5329" jamLengthInMetersSum="26391.17" meanHaltingDuration="52.62" maxHaltingDuration="102.00" haltingDurationSum="5420.00" meanIntervalHaltingDuration="52.62" maxIntervalHaltingDuration="102.00" intervalHaltingDurationSum="5420.00" startedHalts="115.00" meanVehicleNumber="0.08" maxVehicleNumber="4" />
   <interval begin="0.00" end="100000.00" id="27_3" sampledSeconds="6051.87" nVehEntered="372" nVehLeft="372" nVehSeen="372" meanSpeed="1.47" meanTimeLoss="14.58" meanOccupancy="1.20" maxOccupancy="80.08" meanMaxJamLengthInVehicles="0.05" meanMaxJamLengthInMeters="0.25" maxJamLengthInVehicles="4" maxJamLengthInMeters="19.52" jamLengthInVehiclesSum="4925" jamLengthInMetersSum="24528.19" meanHaltingDuration="51.77" maxHaltingDuration="101.00" haltingDurationSum="5022.00" meanIntervalHaltingDuration="51.77" maxIntervalHaltingDuration="101.00" intervalHaltingDurationSum="5022.00" startedHalts="97.00" meanVehicleNumber="0.06" maxVehicleNumber="4" />
   <interval begin="0.00" end="100000.00" id="27_4" sampledSeconds="0.00" nVehEntered="0" nVehLeft="0" nVehSeen="0" meanSpeed="-1.00" meanTimeLoss="-1.00" meanOccupancy="0.00" maxOccupancy="0.00" meanMaxJamLengthInVehicles="0.00" meanMaxJamLengthInMeters="0.00" maxJamLengthInVehicles="0" maxJamLengthInMeters="0.00" jamLengthInVehiclesSum="0" jamLengthInMetersSum="0.00" meanHaltingDuration="0.00" maxHaltingDuration="0.00" haltingDurationSum="0.00" meanIntervalHaltingDuration="0.00" maxIntervalHaltingDuration="0.00" intervalHaltingDurationSum="0.00" startedHalts="0.00" meanVehicleNumber="0.00" maxVehicleNumber="0" />
   <interval begin="0.00" end="100000.00" id="27_5" sampledSeconds="1150.60" nVehEntered="24" nVehLeft="24" nVehSeen="24" meanSpeed="0.47" meanTimeLoss="46.33" meanOccupancy="1.12" maxOccupancy="100.00" meanMaxJamLengthInVehicles="0.01" meanMaxJamLengthInMeters="0.11" maxJamLengthInVehicles="1" maxJamLengthInMeters="10.38" jamLengthInVehiclesSum="1044" jamLengthInMetersSum="10835.30" meanHaltingDuration="70.60" maxHaltingDuration="135.00" haltingDurationSum="1059.00" meanIntervalHaltingDuration="70.60" maxIntervalHaltingDuration="135.00" intervalHaltingDurationSum="1059.00" startedHalts="15.00" meanVehicleNumber="0.01" maxVehicleNumber="2" />
   <interval begin="0.00" end="100000.00" id="27_6" sampledSeconds="0.00" nVehEntered="0" nVehLeft="0" nVehSeen="0" meanSpeed="-1.00" meanTimeLoss="-1.00" meanOccupancy="0.00" maxOccupancy="0.00" meanMaxJamLengthInVehicles="0.00" meanMaxJamLengthInMeters="0.00" maxJamLengthInVehicles="0" maxJamLengthInMeters="0.00" jamLengthInVehiclesSum="0" jamLengthInMetersSum="0.00" meanHaltingDuration="0.00" maxHaltingDuration="0.00" haltingDurationSum="0.00" meanIntervalHaltingDuration="0.00" maxIntervalHaltingDuration="0.00" intervalHaltingDurationSum="0.00" startedHalts="0.00" meanVehicleNumber="0.00" maxVehicleNumber="0" />
   <interval begin="0.00" end="100000.00" id="27_7" sampledSeconds="5186.04" nVehEntered="561" nVehLeft="561" nVehSeen="561" meanSpeed="2.64" meanTimeLoss="7.45" meanOccupancy="1.14" maxOccupancy="77.98" meanMaxJamLengthInVehicles="0.04" meanMaxJamLengthInMeters="0.20" maxJamLengthInVehicles="4" maxJamLengthInMeters="19.10" jamLengthInVehiclesSum="3679" jamLengthInMetersSum="20033.29" meanHaltingDuration="45.84" maxHaltingDuration="108.00" haltingDurationSum="3759.00" meanIntervalHaltingDuration="45.84" maxIntervalHaltingDuration="108.00" intervalHaltingDurationSum="3759.00" startedHalts="84.00" meanVehicleNumber="0.06" maxVehicleNumber="4" />
   <interval begin="0.00" end="100000.00" id="27_8" sampledSeconds="5152.92" nVehEntered="565" nVehLeft="565" nVehSeen="565" meanSpeed="2.67" meanTimeLoss="7.39" meanOccupancy="1.05" maxOccupancy="77.98" meanMaxJamLengthInVehicles="0.04" meanMaxJamLengthInMeters="0.18" maxJamLengthInVehicles="4" maxJamLengthInMeters="19.10" jamLengthInVehiclesSum="3652" jamLengthInMetersSum="18395.94" meanHaltingDuration="45.54" maxHaltingDuration="107.00" haltingDurationSum="3734.00" meanIntervalHaltingDuration="45.54" maxIntervalHaltingDuration="107.00" intervalHaltingDurationSum="3734.00" startedHalts="84.00" meanVehicleNumber="0.06" maxVehicleNumber="4" />
   <interval begin="0.00" end="100000.00" id="27_9" sampledSeconds="2481.69" nVehEntered="68" nVehLeft="68" nVehSeen="68" meanSpeed="0.62" meanTimeLoss="34.85" meanOccupancy="0.59" maxOccupancy="75.00" meanMaxJamLengthInVehicles="0.02" meanMaxJamLengthInMeters="0.12" maxJamLengthInVehicles="4" maxJamLengthInMeters="19.10" jamLengthInVehiclesSum="2193" jamLengthInMetersSum="11757.37" meanHaltingDuration="51.95" maxHaltingDuration="206.00" haltingDurationSum="2234.00" meanIntervalHaltingDuration="51.95" maxIntervalHaltingDuration="206.00" intervalHaltingDurationSum="2234.00" startedHalts="46.00" meanVehicleNumber="0.03" maxVehicleNumber="4" />
   <interval begin="0.00" end="100000.00" id="27_10" sampledSeconds="8749.81" nVehEntered="275" nVehLeft="275" nVehSeen="275" meanSpeed="0.78" meanTimeLoss="29.71" meanOccupancy="1.75" maxOccupancy="79.99" meanMaxJamLengthInVehicles="0.08" meanMaxJamLengthInMeters="0.37" maxJamLengthInVehicles="4" maxJamLengthInMeters="19.01" jamLengthInVehiclesSum="7615" jamLengthInMetersSum="37451.96" meanHaltingDuration="69.60" maxHaltingDuration="206.00" haltingDurationSum="7726.00" meanIntervalHaltingDuration="69.60" maxIntervalHaltingDuration="206.00" intervalHaltingDurationSum="7726.00" startedHalts="111.00" meanVehicleNumber="0.09" maxVehicleNumber="4" />
   <interval begin="0.00" end="100000.00" id="27_11" sampledSeconds="2536.32" nVehEntered="58" nVehLeft="58" nVehSeen="58" meanSpeed="0.65" meanTimeLoss="41.70" meanOccupancy="0.86" maxOccupancy="84.96" meanMaxJamLengthInVehicles="0.02" meanMaxJamLengthInMeters="0.17" maxJamLengthInVehicles="3" maxJamLengthInMeters="20.01" jamLengthInVehiclesSum="2247" jamLengthInMetersSum="16887.35" meanHaltingDuration="60.13" maxHaltingDuration="155.00" haltingDurationSum="2285.00" meanIntervalHaltingDuration="60.13" maxIntervalHaltingDuration="155.00" intervalHaltingDurationSum="2285.00" startedHalts="38.00" meanVehicleNumber="0.03" maxVehicleNumber="3" />
   <interval begin="0.00" end="100000.00" id="27_12" sampledSeconds="8610.91" nVehEntered="223" nVehLeft="223" nVehSeen="223" meanSpeed="0.64" meanTimeLoss="36.67" meanOccupancy="1.80" maxOccupancy="77.49" meanMaxJamLengthInVehicles="0.07" meanMaxJamLengthInMeters="0.38" maxJamLengthInVehicles="5" maxJamLengthInMeters="20.01" jamLengthInVehiclesSum="7453" jamLengthInMetersSum="38031.83" meanHaltingDuration="50.09" maxHaltingDuration="193.00" haltingDurationSum="7563.00" meanIntervalHaltingDuration="50.09" maxIntervalHaltingDuration="193.00" intervalHaltingDurationSum="7563.00" startedHalts="162.00" meanVehicleNumber="0.09" maxVehicleNumber="5" />
   <interval begin="0.00" end="100000.00" id="27_13" sampledSeconds="4281.92" nVehEntered="772" nVehLeft="772" nVehSeen="772" meanSpeed="4.27" meanTimeLoss="3.79" meanOccupancy="0.86" maxOccupancy="79.95" meanMaxJamLengthInVehicles="0.02" meanMaxJamLengthInMeters="0.11" maxJamLengthInVehicles="4" maxJamLengthInMeters="20.00" jamLengthInVehiclesSum="2148" jamLengthInMetersSum="10705.23" meanHaltingDuration="25.69" maxHaltingDuration="64.00" haltingDurationSum="1901.00" meanIntervalHaltingDuration="25.69" maxIntervalHaltingDuration="64.00" intervalHaltingDurationSum="1901.00" startedHalts="95.00" meanVehicleNumber="0.05" maxVehicleNumber="4" />
   <interval begin="0.00" end="100000.00" id="27_14" sampledSeconds="3236.75" nVehEntered="907" nVehLeft="907" nVehSeen="907" meanSpeed="6.06" meanTimeLoss="2.02" meanOccupancy="0.63" maxOccupancy="79.95" meanMaxJamLengthInVehicles="0.01" meanMaxJamLengthInMeters="0.06" maxJamLengthInVehicles="4" maxJamLengthInMeters="20.00" jamLengthInVehiclesSum="1366" jamLengthInMetersSum="6310.03" meanHaltingDuration="24.23" maxHaltingDuration="59.00" haltingDurationSum="1260.00" meanIntervalHaltingDuration="24.23" maxIntervalHaltingDuration="59.00" intervalHaltingDurationSum="1260.00" startedHalts="73.00" meanVehicleNumber="0.04" maxVehicleNumber="4" />
   <interval begin="0.00" end="100000.00" id="27_15" sampledSeconds="1373.46" nVehEntered="162" nVehLeft="162" nVehSeen="162" meanSpeed="1.31" meanTimeLoss="7.70" meanOccupancy="0.24" maxOccupancy="74.95" meanMaxJamLengthInVehicles="0.01" meanMaxJamLengthInMeters="0.05" maxJamLengthInVehicles="4" maxJamLengthInMeters="19.49" jamLengthInVehiclesSum="1058" jamLengthInMetersSum="4702.45" meanHaltingDuration="22.85" maxHaltingDuration="54.00" haltingDurationSum="914.00" meanIntervalHaltingDuration="22.85" maxIntervalHaltingDuration="54.00" intervalHaltingDurationSum="914.00" startedHalts="47.00" meanVehicleNumber="0.01" maxVehicleNumber="4" />
   <interval begin="0.00" end="100000.00" id="27_16" sampledSeconds="1560.93" nVehEntered="493" nVehLeft="493" nVehSeen="493" meanSpeed="7.69" meanTimeLoss="1.38" meanOccupancy="0.31" maxOccupancy="72.50" meanMaxJamLengthInVehicles="0.00" meanMaxJamLengthInMeters="0.02" maxJamLengthInVehicles="3" maxJamLengthInMeters="17.86" jamLengthInVehiclesSum="276" jamLengthInMetersSum="1501.27" meanHaltingDuration="7.45" maxHaltingDuration="55.00" haltingDurationSum="313.00" meanIntervalHaltingDuration="7.45" maxIntervalHaltingDuration="55.00" intervalHaltingDurationSum="313.00" startedHalts="48.00" meanVehicleNumber="0.02" maxVehicleNumber="4" />
   <interval begin="0.00" end="100000.00" id="27_17" sampledSeconds="1748.91" nVehEntered="451" nVehLeft="451" nVehSeen="451" meanSpeed="6.18" meanTimeLoss="2.17" meanOccupancy="0.35" maxOccupancy="76.66" meanMaxJamLengthInVehicles="0.00" meanMaxJamLengthInMeters="0.02" maxJamLengthInVehicles="4" maxJamLengthInMeters="20.00" jamLengthInVehiclesSum="437" jamLengthInMetersSum="2344.95" meanHaltingDuration="9.00" maxHaltingDuration="71.00" haltingDurationSum="306.00" meanIntervalHaltingDuration="9.00" maxIntervalHaltingDuration="71.00" intervalHaltingDurationSum="306.00" startedHalts="45.00" meanVehicleNumber="0.02" maxVehicleNumber="4" />
   <interval begin="0.00" end="100000.00" id="27_18" sampledSeconds="539.46" nVehEntered="258" nVehLeft="258" nVehSeen="258" meanSpeed="11.41" meanTimeLoss="0.37" meanOccupancy="0.10" maxOccupancy="48.29" meanMaxJamLengthInVehicles="0.00" meanMaxJamLengthInMeters="0.00" maxJamLengthInVehicles="0" maxJamLengthInMeters="0.00" jamLengthInVehiclesSum="0" jamLengthInMetersSum="0.00" meanHaltingDuration="0.00" maxHaltingDuration="0.00" haltingDurationSum="0.00" meanIntervalHaltingDuration="0.00" maxIntervalHaltingDuration="0.00" intervalHaltingDurationSum="0.00" startedHalts="0.00" meanVehicleNumber="0.01" maxVehicleNumber="2" />
   <interval begin="0.00" end="100000.00" id="27_19" sampledSeconds="1776.48" nVehEntered="556" nVehLeft="556" nVehSeen="556" meanSpeed="7.88" meanTimeLoss="1.36" meanOccupancy="0.37" maxOccupancy="76.85" meanMaxJamLengthInVehicles="0.00" meanMaxJamLengthInMeters="0.02" maxJamLengthInVehicles="4" maxJamLengthInMeters="19.38" jamLengthInVehiclesSum="455" jamLengthInMetersSum="2410.58" meanHaltingDuration="88.00" maxHaltingDuration="109.00" haltingDurationSum="352.00" meanIntervalHaltingDuration="88.00" maxIntervalHaltingDuration="109.00" intervalHaltingDurationSum="352.00" startedHalts="6.00" meanVehicleNumber="0.02" maxVehicleNumber="4" />
   <interval begin="0.00" end="100000.00" id="27_20" sampledSeconds="22177.51" nVehEntered="780" nVehLeft="780" nVehSeen="780" meanSpeed="2.48" meanTimeLoss="22.95" meanOccupancy="1.34" maxOccupancy="79.23" meanMaxJamLengthInVehicles="0.14" meanMaxJamLengthInMeters="0.87" maxJamLengthInVehicles="13" maxJamLengthInMeters="79.52" jamLengthInVehiclesSum="14354" jamLengthInMetersSum="87615.25" meanHaltingDuration="38.04" maxHaltingDuration="102.00" haltingDurationSum="14606.00" meanIntervalHaltingDuration="38.04" maxIntervalHaltingDuration="102.00" intervalHaltingDurationSum="14606.00" startedHalts="420.00" meanVehicleNumber="0.23" maxVehicleNumber="13" />
   <interval begin="0.00" end="100000.00" id="27_21" sampledSeconds="16909.42" nVehEntered="1049" nVehLeft="1049" nVehSeen="1049" meanSpeed="3.57" meanTimeLoss="11.96" meanOccupancy="1.01" maxOccupancy="79.23" meanMaxJamLengthInVehicles="0.11" meanMaxJamLengthInMeters="0.64" maxJamLengthInVehicles="13" maxJamLengthInMeters="79.52" jamLengthInVehiclesSum="10588" jamLengthInMetersSum="63589.67" meanHaltingDuration="41.60" maxHaltingDuration="102.00" haltingDurationSum="10815.00" meanIntervalHaltingDuration="41.60" maxIntervalHaltingDuration="102.00" intervalHaltingDurationSum="10815.00" startedHalts="302.00" meanVehicleNumber="0.18" maxVehicleNumber="13" />
   <interval begin="0.00" end="100000.00" id="27_22" sampledSeconds="12195.29" nVehEntered="372" nVehLeft="372" nVehSeen="372" meanSpeed="1.58" meanTimeLoss="29.14" meanOccupancy="0.72" maxOccupancy="76.71" meanMaxJamLengthInVehicles="0.10" meanMaxJamLengthInMeters="0.58" maxJamLengthInVehicles="13" maxJamLengthInMeters="77.02" jamLengthInVehiclesSum="9568" jamLengthInMetersSum="57527.51" meanHaltingDuration="40.87" maxHaltingDuration="101.00" haltingDurationSum="9808.00" meanIntervalHaltingDuration="40.87" maxIntervalHaltingDuration="101.00" intervalHaltingDurationSum="9808.00" startedHalts="240.00" meanVehicleNumber="0.12" maxVehicleNumber="13" />
   <interval begin="0.00" end="100000.00" id="27_23" sampledSeconds="0.00" nVehEntered="0" nVehLeft="0" nVehSeen="0" meanSpeed="-1.00" meanTimeLoss="-1.00" meanOccupancy="0.00" maxOccupancy="0.00" meanMaxJamLengthInVehicles="0.00" meanMaxJamLengthInMeters="0.00" maxJamLengthInVehicles="0" maxJamLengthInMeters="0.00" jamLengthInVehiclesSum="0" jamLengthInMetersSum="0.00" meanHaltingDuration="0.00" maxHaltingDuration="0.00" haltingDurationSum="0.00" meanIntervalHaltingDuration="0.00" maxIntervalHaltingDuration="0.00" intervalHaltingDurationSum="0.00" startedHalts="0.00" meanVehicleNumber="0.00" maxVehicleNumber="0" />
   <interval begin="0.00" end="100000.00" id="27_24" sampledSeconds="1150.60" nVehEntered="24" nVehLeft="24" nVehSeen="24" meanSpeed="0.47" meanTimeLoss="46.33" meanOccupancy="1.12" maxOccupancy="100.00" meanMaxJamLengthInVehicles="0.01" meanMaxJamLengthInMeters="0.11" maxJamLengthInVehicles="1" maxJamLengthInMeters="10.38" jamLengthInVehiclesSum="1044" jamLengthInMetersSum="10835.30" meanHaltingDuration="70.60" maxHaltingDuration="135.00" haltingDurationSum="1059.00" meanIntervalHaltingDuration="70.60" maxIntervalHaltingDuration="135.00" intervalHaltingDurationSum="1059.00" startedHalts="15.00" meanVehicleNumber="0.01" maxVehicleNumber="2" />
   <interval begin="0.00" end="100000.00" id="27_25" sampledSeconds="0.00" nVehEntered="0" nVehLeft="0" nVehSeen="0" meanSpeed="-1.00" meanTimeLoss="-1.00" meanOccupancy="0.00" maxOccupancy="0.00" meanMaxJamLengthInVehicles="0.00" meanMaxJamLengthInMeters="0.00" maxJamLengthInVehicles="0" maxJamLengthInMeters="0.00" jamLengthInVehiclesSum="0" jamLengthInMetersSum="0.00" meanHaltingDuration="0.00" maxHaltingDuration="0.00" haltingDurationSum="0.00" meanIntervalHaltingDuration="0.00" maxIntervalHaltingDuration="0.00" intervalHaltingDurationSum="0.00" startedHalts="0.00" meanVehicleNumber="0.00" maxVehicleNumber="0" />
   <interval begin="0.00" end="100000.00" id="27_26" sampledSeconds="1683.95" nVehEntered="24" nVehLeft="24" nVehSeen="24" meanSpeed="2.40" meanTimeLoss="58.06" meanOccupancy="0.12" maxOccupancy="23.05" meanMaxJamLengthInVehicles="0.01" meanMaxJamLengthInMeters="0.15" maxJamLengthInVehicles="3" maxJamLengthInMeters="44.77" jamLengthInVehiclesSum="1140" jamLengthInMetersSum="14727.83" meanHaltingDuration="31.00" maxHaltingDuration="112.00" haltingDurationSum="1178.00" meanIntervalHaltingDuration="31.00" maxIntervalHaltingDuration="112.00" intervalHaltingDurationSum="1178.00" startedHalts="38.00" meanVehicleNumber="0.02" maxVehicleNumber="3" />
   <interval begin="0.00" end="100000.00" id="27_27" sampledSeconds="0.00" nVehEntered="0" nVehLeft="0" nVehSeen="0" meanSpeed="-1.00" meanTimeLoss="-1.00" meanOccupancy="0.00" maxOccupancy="0.00" meanMaxJamLengthInVehicles="0.00" meanMaxJamLengthInMeters="0.00" maxJamLengthInVehicles="0" maxJamLengthInMeters="0.00" jamLengthInVehiclesSum="0" jamLengthInMetersSum="0.00" meanHaltingDuration="0.00" maxHaltingDuration="0.00" haltingDurationSum="0.00" meanIntervalHaltingDuration="0.00" maxIntervalHaltingDuration="0.00" intervalHaltingDurationSum="0.00" startedHalts="0.00" meanVehicleNumber="0.00" maxVehicleNumber="0" />
   <interval begin="0.00" end="100000.00" id="27_28" sampledSeconds="10332.99" nVehEntered="577" nVehLeft="577" nVehSeen="577" meanSpeed="3.32" meanTimeLoss="13.55" meanOccupancy="0.87" maxOccupancy="78.97" meanMaxJamLengthInVehicles="0.07" meanMaxJamLengthInMeters="0.41" maxJamLengthInVehicles="10" maxJamLengthInMeters="57.10" jamLengthInVehiclesSum="6727" jamLengthInMetersSum="40736.10" meanHaltingDuration="41.50" maxHaltingDuration="108.00" haltingDurationSum="6889.00" meanIntervalHaltingDuration="41.50" maxIntervalHaltingDuration="108.00" intervalHaltingDurationSum="6889.00" startedHalts="170.00" meanVehicleNumber="0.11" maxVehicleNumber="10" />