<?xml version="1.0" encoding="UTF-8"?>

<!-- generated on 2025-10-22 09:43:15 by Eclipse SUMO libsumo Version 1.24.0
<libsumoConfiguration xmlns:xsi="http://www.w3.org/2001/XMLSchema-instance" xsi:noNamespaceSchemaLocation="http://sumo.dlr.de/xsd/libsumoConfiguration.xsd">

    <input>
        <net-file value="/home/julesbompard/Documents/Projets/sumo-experiments/src/sumo_experiments/preset_networks/bologna/acosta/acosta_buslanes.net.xml"/>
        <route-files value="/home/julesbompard/Documents/Projets/sumo-experiments/src/sumo_experiments/preset_networks/bologna/acosta/acosta_60621.rou.xml,/home/julesbompard/Documents/Projets/sumo-experiments/src/sumo_experiments/preset_networks/bologna/acosta/acosta_busses.rou.xml"/>
        <additional-files value="/home/julesbompard/Documents/Projets/sumo-experiments/src/sumo_experiments/preset_networks/bologna/acosta/acosta_tls.add.xml,/home/julesbompard/Documents/Projets/sumo-experiments/src/sumo_experiments/preset_networks/bologna/acosta/acosta_vtypes.add.xml,/home/julesbompard/Documents/Projets/sumo-experiments/src/sumo_experiments/preset_networks/bologna/acosta/acosta_detectors.add.xml,/home/julesbompard/Documents/Projets/sumo-experiments/src/sumo_experiments/preset_networks/bologna/acosta/acosta_bus_stops.add.xml"/>
    </input>

    <output>
        <tripinfo-output value="/home/julesbompard/Documents/Projets/sumo-experiments/src/sumo_experiments/preset_networks/bologna/acosta/tripinfos.xml"/>
    </output>

    <processing>
        <threads value="8"/>
        <time-to-teleport value="150"/>
    </processing>

    <report>
        <no-warnings value="true"/>
        <log value="/home/julesbompard/Documents/Projets/sumo-experiments/src/sumo_experiments/preset_networks/bologna/acosta/sumo_log.txt"/>
        <no-step-log value="true"/>
    </report>

    <random_number>
        <random value="true"/>
    </random_number>

    <gui_only>
        <gui-settings-file value="/home/julesbompard/Documents/Projets/sumo-experiments/src/sumo_experiments/preset_networks/bologna/acosta/settings.gui.xml"/>
    </gui_only>

</libsumoConfiguration>
-->

<detector xmlns:xsi="http://www.w3.org/2001/XMLSchema-instance" xsi:noNamespaceSchemaLocation="http://sumo.dlr.de/xsd/det_e2_file.xsd">
   <interval begin="0.00" end="8767.00" id="34_1" sampledSeconds="1739.60" nVehEntered="227" nVehLeft="227" nVehSeen="227" meanSpeed="3.23" meanTimeLoss="5.71" meanOccupancy="4.33" maxOccupancy="79.88" meanMaxJamLengthInVehicles="0.10" meanMaxJamLengthInMeters="0.52" maxJamLengthInVehicles="4" maxJamLengthInMeters="19.98" jamLengthInVehiclesSum="890" jamLengthInMetersSum="4600.81" meanHaltingDuration="10.57" maxHaltingDuration="59.00" haltingDurationSum="983.00" meanIntervalHaltingDuration="10.57" maxIntervalHaltingDuration="59.00" intervalHaltingDurationSum="983.00" startedHalts="93.00" meanVehicleNumber="0.23" maxVehicleNumber="4" />
   <interval begin="0.00" end="8767.00" id="34_2" sampledSeconds="2242.71" nVehEntered="246" nVehLeft="246" nVehSeen="246" meanSpeed="2.73" meanTimeLoss="6.81" meanOccupancy="5.53" maxOccupancy="77.67" meanMaxJamLengthInVehicles="0.12" meanMaxJamLengthInMeters="0.62" maxJamLengthInVehicles="4" maxJamLengthInMeters="19.82" jamLengthInVehiclesSum="1054" jamLengthInMetersSum="5472.49" meanHaltingDuration="9.30" maxHaltingDuration="28.00" haltingDurationSum="1181.00" meanIntervalHaltingDuration="9.30" maxIntervalHaltingDuration="28.00" intervalHaltingDurationSum="1181.00" startedHalts="127.00" meanVehicleNumber="0.28" maxVehicleNumber="4" />
   <interval begin="0.00" end="8767.00" id="34_3" sampledSeconds="8981.90" nVehEntered="383" nVehLeft="383" nVehSeen="383" meanSpeed="0.99" meanTimeLoss="21.67" meanOccupancy="22.59" maxOccupancy="85.00" meanMaxJamLengthInVehicles="0.82" meanMaxJamLengthInMeters="4.37" maxJamLengthInVehicles="4" maxJamLengthInMeters="20.00" jamLengthInVehiclesSum="7216" jamLengthInMetersSum="38277.22" meanHaltingDuration="28.50" maxHaltingDuration="131.00" haltingDurationSum="7440.00" meanIntervalHaltingDuration="28.50" maxIntervalHaltingDuration="131.00" intervalHaltingDurationSum="7440.00" startedHalts="280.00" meanVehicleNumber="1.07" maxVehicleNumber="4" />
   <interval begin="0.00" end="8767.00" id="34_4" sampledSeconds="7579.03" nVehEntered="354" nVehLeft="354" nVehSeen="354" meanSpeed="0.97" meanTimeLoss="19.89" meanOccupancy="18.73" maxOccupancy="79.38" meanMaxJamLengthInVehicles="0.70" meanMaxJamLengthInMeters="3.64" maxJamLengthInVehicles="4" maxJamLengthInMeters="19.38" jamLengthInVehiclesSum="6128" jamLengthInMetersSum="31932.72" meanHaltingDuration="27.74" maxHaltingDuration="131.00" haltingDurationSum="6213.00" meanIntervalHaltingDuration="27.74" maxIntervalHaltingDuration="131.00" intervalHaltingDurationSum="6213.00" startedHalts="241.00" meanVehicleNumber="0.90" maxVehicleNumber="4" />
   <interval begin="0.00" end="8767.00" id="34_5" sampledSeconds="5878.91" nVehEntered="211" nVehLeft="211" nVehSeen="211" meanSpeed="0.84" meanTimeLoss="26.22" meanOccupancy="14.79" maxOccupancy="79.38" meanMaxJamLengthInVehicles="0.55" meanMaxJamLengthInMeters="2.91" maxJamLengthInVehicles="4" maxJamLengthInMeters="19.38" jamLengthInVehiclesSum="4808" jamLengthInMetersSum="25477.61" meanHaltingDuration="27.83" maxHaltingDuration="128.00" haltingDurationSum="4982.00" meanIntervalHaltingDuration="27.83" maxIntervalHaltingDuration="128.00" intervalHaltingDurationSum="4982.00" startedHalts="180.00" meanVehicleNumber="0.69" maxVehicleNumber="4" />
   <interval begin="0.00" end="8767.00" id="34_6" sampledSeconds="517.48" nVehEntered="246" nVehLeft="246" nVehSeen="246" meanSpeed="11.81" meanTimeLoss="0.29" meanOccupancy="1.14" maxOccupancy="35.44" meanMaxJamLengthInVehicles="0.00" meanMaxJamLengthInMeters="0.00" maxJamLengthInVehicles="0" maxJamLengthInMeters="0.00" jamLengthInVehiclesSum="0" jamLengthInMetersSum="0.00" meanHaltingDuration="0.00" maxHaltingDuration="0.00" haltingDurationSum="0.00" meanIntervalHaltingDuration="0.00" maxIntervalHaltingDuration="0.00" intervalHaltingDurationSum="0.00" startedHalts="0.00" meanVehicleNumber="0.09" maxVehicleNumber="2" />
   <interval begin="0.00" end="8767.00" id="34_7" sampledSeconds="1159.79" nVehEntered="539" nVehLeft="539" nVehSeen="539" meanSpeed="11.48" meanTimeLoss="0.35" meanOccupancy="2.56" maxOccupancy="60.00" meanMaxJamLengthInVehicles="0.00" meanMaxJamLengthInMeters="0.00" maxJamLengthInVehicles="0" maxJamLengthInMeters="0.00" jamLengthInVehiclesSum="0" jamLengthInMetersSum="0.00" meanHaltingDuration="0.00" maxHaltingDuration="0.00" haltingDurationSum="0.00" meanIntervalHaltingDuration="0.00" maxIntervalHaltingDuration="0.00" intervalHaltingDurationSum="0.00" startedHalts="0.00" meanVehicleNumber="0.19" maxVehicleNumber="2" />
   <interval begin="0.00" end="8767.00" id="34_8" sampledSeconds="602.04" nVehEntered="331" nVehLeft="331" nVehSeen="331" meanSpeed="12.55" meanTimeLoss="0.17" meanOccupancy="1.35" maxOccupancy="35.79" meanMaxJamLengthInVehicles="0.00" meanMaxJamLengthInMeters="0.00" maxJamLengthInVehicles="0" maxJamLengthInMeters="0.00" jamLengthInVehiclesSum="0" jamLengthInMetersSum="0.00" meanHaltingDuration="0.00" maxHaltingDuration="0.00" haltingDurationSum="0.00" meanIntervalHaltingDuration="0.00" maxIntervalHaltingDuration="0.00" intervalHaltingDurationSum="0.00" startedHalts="0.00" meanVehicleNumber="0.10" maxVehicleNumber="2" />
   <interval begin="0.00" end="8767.00" id="34_9" sampledSeconds="21.71" nVehEntered="31" nVehLeft="31" nVehSeen="31" meanSpeed="13.70" meanTimeLoss="0.06" meanOccupancy="0.02" maxOccupancy="25.00" meanMaxJamLengthInVehicles="0.00" meanMaxJamLengthInMeters="0.00" maxJamLengthInVehicles="0" maxJamLengthInMeters="0.00" jamLengthInVehiclesSum="0" jamLengthInMetersSum="0.00" meanHaltingDuration="0.00" maxHaltingDuration="0.00" haltingDurationSum="0.00" meanIntervalHaltingDuration="0.00" maxIntervalHaltingDuration="0.00" intervalHaltingDurationSum="0.00" startedHalts="0.00" meanVehicleNumber="0.00" maxVehicleNumber="1" />
   <interval begin="0.00" end="8767.00" id="34_10" sampledSeconds="1738.93" nVehEntered="227" nVehLeft="227" nVehSeen="227" meanSpeed="3.23" meanTimeLoss="5.71" meanOccupancy="4.34" maxOccupancy="79.96" meanMaxJamLengthInVehicles="0.10" meanMaxJamLengthInMeters="0.52" maxJamLengthInVehicles="4" maxJamLengthInMeters="19.98" jamLengthInVehiclesSum="890" jamLengthInMetersSum="4600.75" meanHaltingDuration="10.57" maxHaltingDuration="59.00" haltingDurationSum="983.00" meanIntervalHaltingDuration="10.57" maxIntervalHaltingDuration="59.00" intervalHaltingDurationSum="983.00" startedHalts="93.00" meanVehicleNumber="0.23" maxVehicleNumber="4" />
   <interval begin="0.00" end="8767.00" id="34_11" sampledSeconds="3212.80" nVehEntered="230" nVehLeft="230" nVehSeen="230" meanSpeed="13.12" meanTimeLoss="0.74" meanOccupancy="0.96" maxOccupancy="13.33" meanMaxJamLengthInVehicles="0.00" meanMaxJamLengthInMeters="0.00" maxJamLengthInVehicles="0" maxJamLengthInMeters="0.00" jamLengthInVehiclesSum="0" jamLengthInMetersSum="0.00" meanHaltingDuration="0.00" maxHaltingDuration="0.00" haltingDurationSum="0.00" meanIntervalHaltingDuration="0.00" maxIntervalHaltingDuration="0.00" intervalHaltingDurationSum="0.00" startedHalts="1.00" meanVehicleNumber="0.39" maxVehicleNumber="5" />
   <interval begin="0.00" end="8767.00" id="34_12" sampledSeconds="4554.35" nVehEntered="246" nVehLeft="246" nVehSeen="246" meanSpeed="7.15" meanTimeLoss="8.40" meanOccupancy="1.90" maxOccupancy="29.72" meanMaxJamLengthInVehicles="0.13" meanMaxJamLengthInMeters="0.70" maxJamLengthInVehicles="6" maxJamLengthInMeters="36.05" jamLengthInVehiclesSum="1117" jamLengthInMetersSum="6146.57" meanHaltingDuration="9.09" maxHaltingDuration="28.00" haltingDurationSum="1255.00" meanIntervalHaltingDuration="9.09" maxIntervalHaltingDuration="28.00" intervalHaltingDurationSum="1255.00" startedHalts="138.00" meanVehicleNumber="0.55" maxVehicleNumber="8" />
   <interval begin="0.00" end="8767.00" id="34_13" sampledSeconds="12811.73" nVehEntered="543" nVehLeft="543" nVehSeen="543" meanSpeed="3.00" meanTimeLoss="18.36" meanOccupancy="9.05" maxOccupancy="50.49" meanMaxJamLengthInVehicles="0.94" meanMaxJamLengthInMeters="5.62" maxJamLengthInVehicles="6" maxJamLengthInMeters="38.54" jamLengthInVehiclesSum="8273" jamLengthInMetersSum="49290.70" meanHaltingDuration="29.52" maxHaltingDuration="131.00" haltingDurationSum="8501.00" meanIntervalHaltingDuration="29.52" maxIntervalHaltingDuration="131.00" intervalHaltingDurationSum="8501.00" startedHalts="322.00" meanVehicleNumber="1.51" maxVehicleNumber="8" />
   <interval begin="0.00" end="8767.00" id="34_14" sampledSeconds="9663.70" nVehEntered="511" nVehLeft="511" nVehSeen="511" meanSpeed="2.68" meanTimeLoss="15.25" meanOccupancy="6.59" maxOccupancy="42.83" meanMaxJamLengthInVehicles="0.75" meanMaxJamLengthInMeters="4.29" maxJamLengthInVehicles="6" maxJamLengthInMeters="36.51" jamLengthInVehiclesSum="6604" jamLengthInMetersSum="37652.56" meanHaltingDuration="27.79" maxHaltingDuration="131.00" haltingDurationSum="6698.00" meanIntervalHaltingDuration="27.79" maxIntervalHaltingDuration="131.00" intervalHaltingDurationSum="6698.00" startedHalts="263.00" meanVehicleNumber="1.14" maxVehicleNumber="7" />
   <interval begin="0.00" end="8767.00" id="34_15" sampledSeconds="6469.89" nVehEntered="211" nVehLeft="211" nVehSeen="211" meanSpeed="1.15" meanTimeLoss="28.21" meanOccupancy="4.37" maxOccupancy="37.16" meanMaxJamLengthInVehicles="0.59" meanMaxJamLengthInMeters="3.34" maxJamLengthInVehicles="6" maxJamLengthInMeters="37.01" jamLengthInVehiclesSum="5143" jamLengthInMetersSum="29281.67" meanHaltingDuration="27.90" maxHaltingDuration="128.00" haltingDurationSum="5329.00" meanIntervalHaltingDuration="27.90" maxIntervalHaltingDuration="128.00" intervalHaltingDurationSum="5329.00" startedHalts="192.00" meanVehicleNumber="0.75" maxVehicleNumber="6" />
   <interval begin="0.00" end="8767.00" id="27_1" sampledSeconds="13987.76" nVehEntered="404" nVehLeft="404" nVehSeen="404" meanSpeed="0.68" meanTimeLoss="32.57" meanOccupancy="33.49" maxOccupancy="85.00" meanMaxJamLengthInVehicles="1.33" meanMaxJamLengthInMeters="6.96" maxJamLengthInVehicles="4" maxJamLengthInMeters="20.00" jamLengthInVehiclesSum="11683" jamLengthInMetersSum="61019.82" meanHaltingDuration="34.48" maxHaltingDuration="150.00" haltingDurationSum="11621.00" meanIntervalHaltingDuration="34.48" maxIntervalHaltingDuration="150.00" intervalHaltingDurationSum="11621.00" startedHalts="353.00" meanVehicleNumber="1.64" maxVehicleNumber="4" />
   <interval begin="0.00" end="8767.00" id="27_2" sampledSeconds="13617.47" nVehEntered="374" nVehLeft="374" nVehSeen="374" meanSpeed="0.62" meanTimeLoss="34.79" meanOccupancy="30.60" maxOccupancy="82.58" meanMaxJamLengthInVehicles="1.34" meanMaxJamLengthInMeters="6.60" maxJamLengthInVehicles="4" maxJamLengthInMeters="20.00" jamLengthInVehiclesSum="11730" jamLengthInMetersSum="57843.21" meanHaltingDuration="37.66" maxHaltingDuration="151.00" haltingDurationSum="11788.00" meanIntervalHaltingDuration="37.66" maxIntervalHaltingDuration="151.00" intervalHaltingDurationSum="11788.00" startedHalts="338.00" meanVehicleNumber="1.59" maxVehicleNumber="4" />
   <interval begin="0.00" end="8767.00" id="27_3" sampledSeconds="12887.61" nVehEntered="337" nVehLeft="337" nVehSeen="337" meanSpeed="0.62" meanTimeLoss="36.52" meanOccupancy="28.87" maxOccupancy="80.08" meanMaxJamLengthInVehicles="1.26" meanMaxJamLengthInMeters="6.20" maxJamLengthInVehicles="4" maxJamLengthInMeters="20.00" jamLengthInVehiclesSum="11052" jamLengthInMetersSum="54329.89" meanHaltingDuration="34.54" maxHaltingDuration="152.00" haltingDurationSum="11190.00" meanIntervalHaltingDuration="34.54" maxIntervalHaltingDuration="152.00" intervalHaltingDurationSum="11190.00" startedHalts="332.00" meanVehicleNumber="1.51" maxVehicleNumber="4" />
   <interval begin="0.00" end="8767.00" id="27_4" sampledSeconds="0.00" nVehEntered="0" nVehLeft="0" nVehSeen="0" meanSpeed="-1.00" meanTimeLoss="-1.00" meanOccupancy="0.00" maxOccupancy="0.00" meanMaxJamLengthInVehicles="0.00" meanMaxJamLengthInMeters="0.00" maxJamLengthInVehicles="0" maxJamLengthInMeters="0.00" jamLengthInVehiclesSum="0" jamLengthInMetersSum="0.00" meanHaltingDuration="0.00" maxHaltingDuration="0.00" haltingDurationSum="0.00" meanIntervalHaltingDuration="0.00" maxIntervalHaltingDuration="0.00" intervalHaltingDurationSum="0.00" startedHalts="0.00" meanVehicleNumber="0.00" maxVehicleNumber="0" />
   <interval begin="0.00" end="8767.00" id="27_5" sampledSeconds="476.52" nVehEntered="23" nVehLeft="23" nVehSeen="23" meanSpeed="1.08" meanTimeLoss="19.11" meanOccupancy="5.05" maxOccupancy="100.00" meanMaxJamLengthInVehicles="0.04" meanMaxJamLengthInMeters="0.44" maxJamLengthInVehicles="1" maxJamLengthInMeters="10.38" jamLengthInVehiclesSum="371" jamLengthInMetersSum="3849.67" meanHaltingDuration="25.73" maxHaltingDuration="54.00" haltingDurationSum="386.00" meanIntervalHaltingDuration="25.73" maxIntervalHaltingDuration="54.00" intervalHaltingDurationSum="386.00" startedHalts="15.00" meanVehicleNumber="0.06" maxVehicleNumber="1" />
   <interval begin="0.00" end="8767.00" id="27_6" sampledSeconds="0.00" nVehEntered="0" nVehLeft="0" nVehSeen="0" meanSpeed="-1.00" meanTimeLoss="-1.00" meanOccupancy="0.00" maxOccupancy="0.00" meanMaxJamLengthInVehicles="0.00" meanMaxJamLengthInMeters="0.00" maxJamLengthInVehicles="0" maxJamLengthInMeters="0.00" jamLengthInVehiclesSum="0" jamLengthInMetersSum="0.00" meanHaltingDuration="0.00" maxHaltingDuration="0.00" haltingDurationSum="0.00" meanIntervalHaltingDuration="0.00" maxIntervalHaltingDuration="0.00" intervalHaltingDurationSum="0.00" startedHalts="0.00" meanVehicleNumber="0.00" maxVehicleNumber="0" />
   <interval begin="0.00" end="8767.00" id="27_7" sampledSeconds="9752.49" nVehEntered="372" nVehLeft="372" nVehSeen="372" meanSpeed="0.92" meanTimeLoss="24.45" meanOccupancy="23.64" maxOccupancy="80.49" meanMaxJamLengthInVehicles="0.90" meanMaxJamLengthInMeters="4.64" maxJamLengthInVehicles="4" maxJamLengthInMeters="20.00" jamLengthInVehiclesSum="7887" jamLengthInMetersSum="40711.43" meanHaltingDuration="28.09" maxHaltingDuration="131.00" haltingDurationSum="8173.00" meanIntervalHaltingDuration="28.09" maxIntervalHaltingDuration="131.00" intervalHaltingDurationSum="8173.00" startedHalts="293.00" meanVehicleNumber="1.16" maxVehicleNumber="4" />
   <interval begin="0.00" end="8767.00" id="27_8" sampledSeconds="8723.86" nVehEntered="321" nVehLeft="321" nVehSeen="321" meanSpeed="0.90" meanTimeLoss="25.41" meanOccupancy="20.21" maxOccupancy="79.98" meanMaxJamLengthInVehicles="0.81" meanMaxJamLengthInMeters="4.05" maxJamLengthInVehicles="4" maxJamLengthInMeters="19.50" jamLengthInVehiclesSum="7093" jamLengthInMetersSum="35475.77" meanHaltingDuration="28.57" maxHaltingDuration="131.00" haltingDurationSum="7343.00" meanIntervalHaltingDuration="28.57" maxIntervalHaltingDuration="131.00" intervalHaltingDurationSum="7343.00" startedHalts="259.00" meanVehicleNumber="1.03" maxVehicleNumber="4" />
   <interval begin="0.00" end="8767.00" id="27_9" sampledSeconds="1149.77" nVehEntered="43" nVehLeft="43" nVehSeen="43" meanSpeed="0.91" meanTimeLoss="24.98" meanOccupancy="3.14" maxOccupancy="72.50" meanMaxJamLengthInVehicles="0.11" meanMaxJamLengthInMeters="0.57" maxJamLengthInVehicles="3" maxJamLengthInMeters="17.71" jamLengthInVehiclesSum="957" jamLengthInMetersSum="4995.72" meanHaltingDuration="32.90" maxHaltingDuration="98.00" haltingDurationSum="987.00" meanIntervalHaltingDuration="32.90" maxIntervalHaltingDuration="98.00" intervalHaltingDurationSum="987.00" startedHalts="31.00" meanVehicleNumber="0.14" maxVehicleNumber="3" />
   <interval begin="0.00" end="8767.00" id="27_10" sampledSeconds="4118.84" nVehEntered="176" nVehLeft="176" nVehSeen="176" meanSpeed="1.06" meanTimeLoss="21.36" meanOccupancy="10.34" maxOccupancy="77.49" meanMaxJamLengthInVehicles="0.37" meanMaxJamLengthInMeters="1.92" maxJamLengthInVehicles="4" maxJamLengthInMeters="19.02" jamLengthInVehiclesSum="3205" jamLengthInMetersSum="16819.23" meanHaltingDuration="24.92" maxHaltingDuration="101.00" haltingDurationSum="3339.00" meanIntervalHaltingDuration="24.92" maxIntervalHaltingDuration="101.00" intervalHaltingDurationSum="3339.00" startedHalts="134.00" meanVehicleNumber="0.49" maxVehicleNumber="4" />
   <interval begin="0.00" end="8767.00" id="27_11" sampledSeconds="674.22" nVehEntered="40" nVehLeft="40" nVehSeen="40" meanSpeed="1.73" meanTimeLoss="14.75" meanOccupancy="3.10" maxOccupancy="80.00" meanMaxJamLengthInVehicles="0.05" meanMaxJamLengthInMeters="0.47" maxJamLengthInVehicles="2" maxJamLengthInMeters="19.01" jamLengthInVehiclesSum="457" jamLengthInMetersSum="4078.41" meanHaltingDuration="16.23" maxHaltingDuration="51.00" haltingDurationSum="487.00" meanIntervalHaltingDuration="16.23" maxIntervalHaltingDuration="51.00" intervalHaltingDurationSum="487.00" startedHalts="30.00" meanVehicleNumber="0.08" maxVehicleNumber="2" />
   <interval begin="0.00" end="8767.00" id="27_12" sampledSeconds="6671.59" nVehEntered="143" nVehLeft="143" nVehSeen="143" meanSpeed="0.53" meanTimeLoss="44.72" meanOccupancy="15.87" maxOccupancy="81.99" meanMaxJamLengthInVehicles="0.66" meanMaxJamLengthInMeters="3.32" maxJamLengthInVehicles="4" maxJamLengthInMeters="20.01" jamLengthInVehiclesSum="5760" jamLengthInMetersSum="29109.09" meanHaltingDuration="33.92" maxHaltingDuration="131.00" haltingDurationSum="5902.00" meanIntervalHaltingDuration="33.92" maxIntervalHaltingDuration="131.00" intervalHaltingDurationSum="5902.00" startedHalts="181.00" meanVehicleNumber="0.78" maxVehicleNumber="4" />
   <interval begin="0.00" end="8767.00" id="27_13" sampledSeconds="9399.34" nVehEntered="510" nVehLeft="510" nVehSeen="510" meanSpeed="1.29" meanTimeLoss="16.69" meanOccupancy="22.32" maxOccupancy="82.50" meanMaxJamLengthInVehicles="0.84" meanMaxJamLengthInMeters="4.35" maxJamLengthInVehicles="4" maxJamLengthInMeters="20.00" jamLengthInVehiclesSum="7386" jamLengthInMetersSum="38140.06" meanHaltingDuration="30.48" maxHaltingDuration="153.00" haltingDurationSum="7071.00" meanIntervalHaltingDuration="30.48" maxIntervalHaltingDuration="153.00" intervalHaltingDurationSum="7071.00" startedHalts="268.00" meanVehicleNumber="1.13" maxVehicleNumber="4" />
   <interval begin="0.00" end="8767.00" id="27_14" sampledSeconds="8225.72" nVehEntered="618" nVehLeft="618" nVehSeen="618" meanSpeed="1.39" meanTimeLoss="11.98" meanOccupancy="18.79" maxOccupancy="80.22" meanMaxJamLengthInVehicles="0.74" meanMaxJamLengthInMeters="3.65" maxJamLengthInVehicles="4" maxJamLengthInMeters="20.00" jamLengthInVehiclesSum="6519" jamLengthInMetersSum="32021.94" meanHaltingDuration="31.82" maxHaltingDuration="288.00" haltingDurationSum="5092.00" meanIntervalHaltingDuration="31.82" maxIntervalHaltingDuration="288.00" intervalHaltingDurationSum="5092.00" startedHalts="238.00" meanVehicleNumber="0.99" maxVehicleNumber="4" />
   <interval begin="0.00" end="8767.00" id="27_15" sampledSeconds="5572.59" nVehEntered="223" nVehLeft="223" nVehSeen="223" meanSpeed="0.58" meanTimeLoss="23.94" meanOccupancy="12.13" maxOccupancy="77.45" meanMaxJamLengthInVehicles="0.55" meanMaxJamLengthInMeters="2.56" maxJamLengthInVehicles="4" maxJamLengthInMeters="20.00" jamLengthInVehiclesSum="4808" jamLengthInMetersSum="22451.69" meanHaltingDuration="30.96" maxHaltingDuration="152.00" haltingDurationSum="4272.00" meanIntervalHaltingDuration="30.96" maxIntervalHaltingDuration="152.00" intervalHaltingDurationSum="4272.00" startedHalts="169.00" meanVehicleNumber="0.65" maxVehicleNumber="4" />
   <interval begin="0.00" end="8767.00" id="27_16" sampledSeconds="798.35" nVehEntered="365" nVehLeft="365" nVehSeen="365" meanSpeed="11.00" meanTimeLoss="0.40" meanOccupancy="1.80" maxOccupancy="60.00" meanMaxJamLengthInVehicles="0.00" meanMaxJamLengthInMeters="0.00" maxJamLengthInVehicles="0" maxJamLengthInMeters="0.00" jamLengthInVehiclesSum="0" jamLengthInMetersSum="0.00" meanHaltingDuration="0.00" maxHaltingDuration="0.00" haltingDurationSum="0.00" meanIntervalHaltingDuration="0.00" maxIntervalHaltingDuration="0.00" intervalHaltingDurationSum="0.00" startedHalts="0.00" meanVehicleNumber="0.13" maxVehicleNumber="2" />
   <interval begin="0.00" end="8767.00" id="27_17" sampledSeconds="646.66" nVehEntered="308" nVehLeft="308" nVehSeen="308" meanSpeed="11.34" meanTimeLoss="0.40" meanOccupancy="1.43" maxOccupancy="47.50" meanMaxJamLengthInVehicles="0.00" meanMaxJamLengthInMeters="0.00" maxJamLengthInVehicles="0" maxJamLengthInMeters="0.00" jamLengthInVehiclesSum="0" jamLengthInMetersSum="0.00" meanHaltingDuration="0.00" maxHaltingDuration="0.00" haltingDurationSum="0.00" meanIntervalHaltingDuration="0.00" maxIntervalHaltingDuration="0.00" intervalHaltingDurationSum="0.00" startedHalts="0.00" meanVehicleNumber="0.11" maxVehicleNumber="3" />
   <interval begin="0.00" end="8767.00" id="27_18" sampledSeconds="153.85" nVehEntered="81" nVehLeft="81" nVehSeen="81" meanSpeed="11.41" meanTimeLoss="0.35" meanOccupancy="0.33" maxOccupancy="34.23" meanMaxJamLengthInVehicles="0.00" meanMaxJamLengthInMeters="0.00" maxJamLengthInVehicles="0" maxJamLengthInMeters="0.00" jamLengthInVehiclesSum="0" jamLengthInMetersSum="0.00" meanHaltingDuration="0.00" maxHaltingDuration="0.00" haltingDurationSum="0.00" meanIntervalHaltingDuration="0.00" maxIntervalHaltingDuration="0.00" intervalHaltingDurationSum="0.00" startedHalts="0.00" meanVehicleNumber="0.03" maxVehicleNumber="3" />
   <interval begin="0.00" end="8767.00" id="27_19" sampledSeconds="884.26" nVehEntered="359" nVehLeft="359" nVehSeen="359" meanSpeed="10.27" meanTimeLoss="0.63" meanOccupancy="2.10" maxOccupancy="60.00" meanMaxJamLengthInVehicles="0.01" meanMaxJamLengthInMeters="0.03" maxJamLengthInVehicles="2" maxJamLengthInMeters="11.53" jamLengthInVehiclesSum="46" jamLengthInMetersSum="246.38" meanHaltingDuration="16.00" maxHaltingDuration="24.00" haltingDurationSum="48.00" meanIntervalHaltingDuration="16.00" maxIntervalHaltingDuration="24.00" intervalHaltingDurationSum="48.00" startedHalts="4.00" meanVehicleNumber="0.14" maxVehicleNumber="3" />
   <interval begin="0.00" end="8767.00" id="27_20" sampledSeconds="40731.04" nVehEntered="515" nVehLeft="515" nVehSeen="515" meanSpeed="0.90" meanTimeLoss="73.63" meanOccupancy="28.94" maxOccupancy="79.23" meanMaxJamLengthInVehicles="3.73" meanMaxJamLengthInMeters="23.53" maxJamLengthInVehicles="13" maxJamLengthInMeters="79.52" jamLengthInVehiclesSum="33142" jamLengthInMetersSum="208572.16" meanHaltingDuration="33.66" maxHaltingDuration="153.00" haltingDurationSum="33663.00" meanIntervalHaltingDuration="33.66" maxIntervalHaltingDuration="153.00" intervalHaltingDurationSum="33663.00" startedHalts="1037.00" meanVehicleNumber="4.70" maxVehicleNumber="13" />
   <interval begin="0.00" end="8767.00" id="27_21" sampledSeconds="37330.55" nVehEntered="706" nVehLeft="706" nVehSeen="706" meanSpeed="0.87" meanTimeLoss="49.54" meanOccupancy="25.76" maxOccupancy="79.23" meanMaxJamLengthInVehicles="3.49" meanMaxJamLengthInMeters="21.32" maxJamLengthInVehicles="13" maxJamLengthInMeters="79.52" jamLengthInVehiclesSum="31127" jamLengthInMetersSum="189737.23" meanHaltingDuration="36.81" maxHaltingDuration="302.00" haltingDurationSum="30924.00" meanIntervalHaltingDuration="36.81" maxIntervalHaltingDuration="302.00" intervalHaltingDurationSum="30924.00" startedHalts="936.00" meanVehicleNumber="4.31" maxVehicleNumber="13" />
   <interval begin="0.00" end="8767.00" id="27_22" sampledSeconds="33137.80" nVehEntered="345" nVehLeft="345" nVehSeen="345" meanSpeed="0.62" meanTimeLoss="91.76" meanOccupancy="22.68" maxOccupancy="78.60" meanMaxJamLengthInVehicles="3.17" meanMaxJamLengthInMeters="19.17" maxJamLengthInVehicles="13" maxJamLengthInMeters="79.52" jamLengthInVehiclesSum="28248" jamLengthInMetersSum="170837.59" meanHaltingDuration="34.04" maxHaltingDuration="168.00" haltingDurationSum="28903.00" meanIntervalHaltingDuration="34.04" maxIntervalHaltingDuration="168.00" intervalHaltingDurationSum="28903.00" startedHalts="860.00" meanVehicleNumber="3.80" maxVehicleNumber="13" />
   <interval begin="0.00" end="8767.00" id="27_23" sampledSeconds="0.00" nVehEntered="0" nVehLeft="0" nVehSeen="0" meanSpeed="-1.00" meanTimeLoss="-1.00" meanOccupancy="0.00" maxOccupancy="0.00" meanMaxJamLengthInVehicles="0.00" meanMaxJamLengthInMeters="0.00" maxJamLengthInVehicles="0" maxJamLengthInMeters="0.00" jamLengthInVehiclesSum="0" jamLengthInMetersSum="0.00" meanHaltingDuration="0.00" maxHaltingDuration="0.00" haltingDurationSum="0.00" meanIntervalHaltingDuration="0.00" maxIntervalHaltingDuration="0.00" intervalHaltingDurationSum="0.00" startedHalts="0.00" meanVehicleNumber="0.00" maxVehicleNumber="0" />
   <interval begin="0.00" end="8767.00" id="27_24" sampledSeconds="476.52" nVehEntered="23" nVehLeft="23" nVehSeen="23" meanSpeed="1.08" meanTimeLoss="19.11" meanOccupancy="5.05" maxOccupancy="100.00" meanMaxJamLengthInVehicles="0.04" meanMaxJamLengthInMeters="0.44" maxJamLengthInVehicles="1" maxJamLengthInMeters="10.38" jamLengthInVehiclesSum="371" jamLengthInMetersSum="3849.67" meanHaltingDuration="25.73" maxHaltingDuration="54.00" haltingDurationSum="386.00" meanIntervalHaltingDuration="25.73" maxIntervalHaltingDuration="54.00" intervalHaltingDurationSum="386.00" startedHalts="15.00" meanVehicleNumber="0.06" maxVehicleNumber="1" />
   <interval begin="0.00" end="8767.00" id="27_25" sampledSeconds="0.00" nVehEntered="0" nVehLeft="0" nVehSeen="0" meanSpeed="-1.00" meanTimeLoss="-1.00" meanOccupancy="0.00" maxOccupancy="0.00" meanMaxJamLengthInVehicles="0.00" meanMaxJamLengthInMeters="0.00" maxJamLengthInVehicles="0" maxJamLengthInMeters="0.00" jamLengthInVehiclesSum="0" jamLengthInMetersSum="0.00" meanHaltingDuration="0.00" maxHaltingDuration="0.00" haltingDurationSum="0.00" meanIntervalHaltingDuration="0.00" maxIntervalHaltingDuration="0.00" intervalHaltingDurationSum="0.00" startedHalts="0.00" meanVehicleNumber="0.00" maxVehicleNumber="0" />
   <interval begin="0.00" end="8767.00" id="27_26" sampledSeconds="1204.23" nVehEntered="24" nVehLeft="24" nVehSeen="24" meanSpeed="3.32" meanTimeLoss="38.17" meanOccupancy="1.00" maxOccupancy="23.05" meanMaxJamLengthInVehicles="0.08" meanMaxJamLengthInMeters="0.96" maxJamLengthInVehicles="3" maxJamLengthInMeters="42.07" jamLengthInVehiclesSum="669" jamLengthInMetersSum="8416.04" meanHaltingDuration="19.58" maxHaltingDuration="23.00" haltingDurationSum="705.00" meanIntervalHaltingDuration="19.58" maxIntervalHaltingDuration="23.00" intervalHaltingDurationSum="705.00" startedHalts="36.00" meanVehicleNumber="0.14" maxVehicleNumber="3" />
   <interval begin="0.00" end="8767.00" id="27_27" sampledSeconds="0.00" nVehEntered="0" nVehLeft="0" nVehSeen="0" meanSpeed="-1.00" meanTimeLoss="-1.00" meanOccupancy="0.00" maxOccupancy="0.00" meanMaxJamLengthInVehicles="0.00" meanMaxJamLengthInMeters="0.00" maxJamLengthInVehicles="0" maxJamLengthInMeters="0.00" jamLengthInVehiclesSum="0" jamLengthInMetersSum="0.00" meanHaltingDuration="0.00" maxHaltingDuration="0.00" haltingDurationSum="0.00" meanIntervalHaltingDuration="0.00" maxIntervalHaltingDuration="0.00" intervalHaltingDurationSum="0.00" startedHalts="0.00" meanVehicleNumber="0.00" maxVehicleNumber="0" />
   <interval begin="0.00" end="8767.00" id="27_28" sampledSeconds="18204.21" nVehEntered="405" nVehLeft="405" nVehSeen="405" meanSpeed="1.27" meanTimeLoss="40.75" meanOccupancy="17.28" maxOccupancy="78.97" meanMaxJamLengthInVehicles="1.60" meanMaxJamLengthInMeters="9.49" maxJamLengthInVehicles="10" maxJamLengthInMeters="57.10" jamLengthInVehiclesSum="14096" jamLengthInMetersSum="83290.44" meanHaltingDuration="27.37" maxHaltingDuration="131.00" haltingDurationSum="14590.00" meanIntervalHaltingDuration="27.37" maxIntervalHaltingDuration="131.00" intervalHaltingDurationSum="14590.00" startedHalts="538.00" meanVehicleNumber="2.12" maxVehicleNumber="10" />