<?xml version="1.0" encoding="UTF-8"?>

<!-- generated on 2025-10-20 17:57:52 by Eclipse SUMO libsumo Version 1.24.0
<libsumoConfiguration xmlns:xsi="http://www.w3.org/2001/XMLSchema-instance" xsi:noNamespaceSchemaLocation="http://sumo.dlr.de/xsd/libsumoConfiguration.xsd">

    <input>
        <net-file value="/home/julesbompard/Documents/Projets/sumo-experiments/src/sumo_experiments/preset_networks/bologna/acosta/acosta_buslanes.net.xml"/>
        <route-files value="/home/julesbompard/Documents/Projets/sumo-experiments/src/sumo_experiments/preset_networks/bologna/acosta/acosta_27490.rou.xml,/home/julesbompard/Documents/Projets/sumo-experiments/src/sumo_experiments/preset_networks/bologna/acosta/acosta_busses.rou.xml"/>
        <additional-files value="/home/julesbompard/Documents/Projets/sumo-experiments/src/sumo_experiments/preset_networks/bologna/acosta/acosta_tls.add.xml,/home/julesbompard/Documents/Projets/sumo-experiments/src/sumo_experiments/preset_networks/bologna/acosta/acosta_vtypes.add.xml,/home/julesbompard/Documents/Projets/sumo-experiments/src/sumo_experiments/preset_networks/bologna/acosta/acosta_detectors.add.xml,/home/julesbompard/Documents/Projets/sumo-experiments/src/sumo_experiments/preset_networks/bologna/acosta/acosta_bus_stops.add.xml"/>
    </input>

    <output>
        <tripinfo-output value="/home/julesbompard/Documents/Projets/sumo-experiments/src/sumo_experiments/preset_networks/bologna/acosta/tripinfos.xml"/>
    </output>

    <processing>
        <threads value="8"/>
        <time-to-teleport value="150"/>
    </processing>

    <report>
        <no-warnings value="true"/>
        <log value="/home/julesbompard/Documents/Projets/sumo-experiments/src/sumo_experiments/preset_networks/bologna/acosta/sumo_log.txt"/>
        <no-step-log value="true"/>
    </report>

    <random_number>
        <random value="true"/>
    </random_number>

    <gui_only>
        <gui-settings-file value="/home/julesbompard/Documents/Projets/sumo-experiments/src/sumo_experiments/preset_networks/bologna/acosta/settings.gui.xml"/>
    </gui_only>

</libsumoConfiguration>
-->

<detector xmlns:xsi="http://www.w3.org/2001/XMLSchema-instance" xsi:noNamespaceSchemaLocation="http://sumo.dlr.de/xsd/det_e2_file.xsd">
   <interval begin="0.00" end="8480.00" id="34_1" sampledSeconds="1670.15" nVehEntered="223" nVehLeft="223" nVehSeen="223" meanSpeed="3.31" meanTimeLoss="5.54" meanOccupancy="4.26" maxOccupancy="79.88" meanMaxJamLengthInVehicles="0.10" meanMaxJamLengthInMeters="0.50" maxJamLengthInVehicles="4" maxJamLengthInMeters="19.98" jamLengthInVehiclesSum="811" jamLengthInMetersSum="4204.80" meanHaltingDuration="10.19" maxHaltingDuration="33.00" haltingDurationSum="897.00" meanIntervalHaltingDuration="10.19" maxIntervalHaltingDuration="33.00" intervalHaltingDurationSum="897.00" startedHalts="89.00" meanVehicleNumber="0.22" maxVehicleNumber="4" />
   <interval begin="0.00" end="8480.00" id="34_2" sampledSeconds="2112.97" nVehEntered="257" nVehLeft="257" nVehSeen="257" meanSpeed="3.02" meanTimeLoss="5.93" meanOccupancy="5.31" maxOccupancy="81.64" meanMaxJamLengthInVehicles="0.11" meanMaxJamLengthInMeters="0.55" maxJamLengthInVehicles="4" maxJamLengthInMeters="20.00" jamLengthInVehiclesSum="913" jamLengthInMetersSum="4687.43" meanHaltingDuration="7.81" maxHaltingDuration="32.00" haltingDurationSum="1047.00" meanIntervalHaltingDuration="7.81" maxIntervalHaltingDuration="32.00" intervalHaltingDurationSum="1047.00" startedHalts="134.00" meanVehicleNumber="0.28" maxVehicleNumber="4" />
   <interval begin="0.00" end="8480.00" id="34_3" sampledSeconds="10001.59" nVehEntered="361" nVehLeft="361" nVehSeen="361" meanSpeed="0.84" meanTimeLoss="25.92" meanOccupancy="25.79" maxOccupancy="82.48" meanMaxJamLengthInVehicles="0.99" meanMaxJamLengthInMeters="5.22" maxJamLengthInVehicles="4" maxJamLengthInMeters="20.00" jamLengthInVehiclesSum="8366" jamLengthInMetersSum="44300.86" meanHaltingDuration="34.53" maxHaltingDuration="152.00" haltingDurationSum="7942.00" meanIntervalHaltingDuration="34.53" maxIntervalHaltingDuration="152.00" intervalHaltingDurationSum="7942.00" startedHalts="250.00" meanVehicleNumber="1.22" maxVehicleNumber="4" />
   <interval begin="0.00" end="8480.00" id="34_4" sampledSeconds="8528.70" nVehEntered="342" nVehLeft="342" nVehSeen="342" meanSpeed="0.86" meanTimeLoss="23.37" meanOccupancy="21.62" maxOccupancy="79.98" meanMaxJamLengthInVehicles="0.84" meanMaxJamLengthInMeters="4.42" maxJamLengthInVehicles="4" maxJamLengthInMeters="20.00" jamLengthInVehiclesSum="7145" jamLengthInMetersSum="37475.86" meanHaltingDuration="34.30" maxHaltingDuration="149.00" haltingDurationSum="6997.00" meanIntervalHaltingDuration="34.30" maxIntervalHaltingDuration="149.00" intervalHaltingDurationSum="6997.00" startedHalts="223.00" meanVehicleNumber="1.04" maxVehicleNumber="4" />
   <interval begin="0.00" end="8480.00" id="34_5" sampledSeconds="7031.78" nVehEntered="218" nVehLeft="218" nVehSeen="218" meanSpeed="0.73" meanTimeLoss="30.61" meanOccupancy="17.98" maxOccupancy="79.38" meanMaxJamLengthInVehicles="0.70" meanMaxJamLengthInMeters="3.69" maxJamLengthInVehicles="4" maxJamLengthInMeters="20.00" jamLengthInVehiclesSum="5963" jamLengthInMetersSum="31323.40" meanHaltingDuration="32.98" maxHaltingDuration="148.00" haltingDurationSum="5838.00" meanIntervalHaltingDuration="32.98" maxIntervalHaltingDuration="148.00" intervalHaltingDurationSum="5838.00" startedHalts="179.00" meanVehicleNumber="0.85" maxVehicleNumber="4" />
   <interval begin="0.00" end="8480.00" id="34_6" sampledSeconds="538.10" nVehEntered="257" nVehLeft="257" nVehSeen="257" meanSpeed="11.84" meanTimeLoss="0.29" meanOccupancy="1.22" maxOccupancy="39.49" meanMaxJamLengthInVehicles="0.00" meanMaxJamLengthInMeters="0.00" maxJamLengthInVehicles="0" maxJamLengthInMeters="0.00" jamLengthInVehiclesSum="0" jamLengthInMetersSum="0.00" meanHaltingDuration="0.00" maxHaltingDuration="0.00" haltingDurationSum="0.00" meanIntervalHaltingDuration="0.00" maxIntervalHaltingDuration="0.00" intervalHaltingDurationSum="0.00" startedHalts="0.00" meanVehicleNumber="0.09" maxVehicleNumber="2" />
   <interval begin="0.00" end="8480.00" id="34_7" sampledSeconds="1159.57" nVehEntered="515" nVehLeft="515" nVehSeen="515" meanSpeed="10.92" meanTimeLoss="0.45" meanOccupancy="2.67" maxOccupancy="60.00" meanMaxJamLengthInVehicles="0.00" meanMaxJamLengthInMeters="0.00" maxJamLengthInVehicles="0" maxJamLengthInMeters="0.00" jamLengthInVehiclesSum="0" jamLengthInMetersSum="0.00" meanHaltingDuration="0.00" maxHaltingDuration="0.00" haltingDurationSum="0.00" meanIntervalHaltingDuration="0.00" maxIntervalHaltingDuration="0.00" intervalHaltingDurationSum="0.00" startedHalts="0.00" meanVehicleNumber="0.19" maxVehicleNumber="3" />
   <interval begin="0.00" end="8480.00" id="34_8" sampledSeconds="617.13" nVehEntered="340" nVehLeft="340" nVehSeen="340" meanSpeed="12.55" meanTimeLoss="0.18" meanOccupancy="1.45" maxOccupancy="32.88" meanMaxJamLengthInVehicles="0.00" meanMaxJamLengthInMeters="0.00" maxJamLengthInVehicles="0" maxJamLengthInMeters="0.00" jamLengthInVehiclesSum="0" jamLengthInMetersSum="0.00" meanHaltingDuration="0.00" maxHaltingDuration="0.00" haltingDurationSum="0.00" meanIntervalHaltingDuration="0.00" maxIntervalHaltingDuration="0.00" intervalHaltingDurationSum="0.00" startedHalts="0.00" meanVehicleNumber="0.11" maxVehicleNumber="2" />
   <interval begin="0.00" end="8480.00" id="34_9" sampledSeconds="33.65" nVehEntered="45" nVehLeft="45" nVehSeen="45" meanSpeed="13.85" meanTimeLoss="0.07" meanOccupancy="0.03" maxOccupancy="25.00" meanMaxJamLengthInVehicles="0.00" meanMaxJamLengthInMeters="0.00" maxJamLengthInVehicles="0" maxJamLengthInMeters="0.00" jamLengthInVehiclesSum="0" jamLengthInMetersSum="0.00" meanHaltingDuration="0.00" maxHaltingDuration="0.00" haltingDurationSum="0.00" meanIntervalHaltingDuration="0.00" maxIntervalHaltingDuration="0.00" intervalHaltingDurationSum="0.00" startedHalts="0.00" meanVehicleNumber="0.01" maxVehicleNumber="1" />
   <interval begin="0.00" end="8480.00" id="34_10" sampledSeconds="1669.51" nVehEntered="223" nVehLeft="223" nVehSeen="223" meanSpeed="3.31" meanTimeLoss="5.54" meanOccupancy="4.27" maxOccupancy="79.96" meanMaxJamLengthInVehicles="0.10" meanMaxJamLengthInMeters="0.50" maxJamLengthInVehicles="4" maxJamLengthInMeters="19.98" jamLengthInVehiclesSum="811" jamLengthInMetersSum="4204.76" meanHaltingDuration="10.19" maxHaltingDuration="33.00" haltingDurationSum="897.00" meanIntervalHaltingDuration="10.19" maxIntervalHaltingDuration="33.00" intervalHaltingDurationSum="897.00" startedHalts="89.00" meanVehicleNumber="0.22" maxVehicleNumber="4" />
   <interval begin="0.00" end="8480.00" id="34_11" sampledSeconds="3208.90" nVehEntered="228" nVehLeft="228" nVehSeen="228" meanSpeed="12.99" meanTimeLoss="0.89" meanOccupancy="0.99" maxOccupancy="11.11" meanMaxJamLengthInVehicles="0.00" meanMaxJamLengthInMeters="0.01" maxJamLengthInVehicles="2" maxJamLengthInMeters="11.82" jamLengthInVehiclesSum="11" jamLengthInMetersSum="53.85" meanHaltingDuration="3.75" maxHaltingDuration="6.00" haltingDurationSum="15.00" meanIntervalHaltingDuration="3.75" maxIntervalHaltingDuration="6.00" intervalHaltingDurationSum="15.00" startedHalts="5.00" meanVehicleNumber="0.41" maxVehicleNumber="5" />
   <interval begin="0.00" end="8480.00" id="34_12" sampledSeconds="4531.67" nVehEntered="257" nVehLeft="257" nVehSeen="257" meanSpeed="7.51" meanTimeLoss="7.55" meanOccupancy="1.93" maxOccupancy="27.05" meanMaxJamLengthInVehicles="0.12" meanMaxJamLengthInMeters="0.63" maxJamLengthInVehicles="7" maxJamLengthInMeters="43.04" jamLengthInVehiclesSum="993" jamLengthInMetersSum="5379.40" meanHaltingDuration="7.71" maxHaltingDuration="32.00" haltingDurationSum="1141.00" meanIntervalHaltingDuration="7.71" maxIntervalHaltingDuration="32.00" intervalHaltingDurationSum="1141.00" startedHalts="148.00" meanVehicleNumber="0.56" maxVehicleNumber="7" />
   <interval begin="0.00" end="8480.00" id="34_13" sampledSeconds="14340.37" nVehEntered="520" nVehLeft="520" nVehSeen="520" meanSpeed="2.54" meanTimeLoss="22.37" meanOccupancy="10.33" maxOccupancy="60.47" meanMaxJamLengthInVehicles="1.16" meanMaxJamLengthInMeters="6.79" maxJamLengthInVehicles="9" maxJamLengthInMeters="49.01" jamLengthInVehiclesSum="9867" jamLengthInMetersSum="57596.32" meanHaltingDuration="34.17" maxHaltingDuration="152.00" haltingDurationSum="9465.00" meanIntervalHaltingDuration="34.17" maxIntervalHaltingDuration="152.00" intervalHaltingDurationSum="9465.00" startedHalts="317.00" meanVehicleNumber="1.74" maxVehicleNumber="10" />
   <interval begin="0.00" end="8480.00" id="34_14" sampledSeconds="10963.43" nVehEntered="515" nVehLeft="515" nVehSeen="515" meanSpeed="2.36" meanTimeLoss="17.66" meanOccupancy="7.73" maxOccupancy="44.09" meanMaxJamLengthInVehicles="0.94" meanMaxJamLengthInMeters="5.40" maxJamLengthInVehicles="7" maxJamLengthInMeters="43.53" jamLengthInVehiclesSum="7947" jamLengthInMetersSum="45824.83" meanHaltingDuration="34.69" maxHaltingDuration="149.00" haltingDurationSum="7805.00" meanIntervalHaltingDuration="34.69" maxIntervalHaltingDuration="149.00" intervalHaltingDurationSum="7805.00" startedHalts="257.00" meanVehicleNumber="1.33" maxVehicleNumber="7" />
   <interval begin="0.00" end="8480.00" id="34_15" sampledSeconds="7865.87" nVehEntered="218" nVehLeft="218" nVehSeen="218" meanSpeed="1.08" meanTimeLoss="33.39" meanOccupancy="5.50" maxOccupancy="40.94" meanMaxJamLengthInVehicles="0.76" meanMaxJamLengthInMeters="4.37" maxJamLengthInVehicles="7" maxJamLengthInMeters="40.51" jamLengthInVehiclesSum="6470" jamLengthInMetersSum="37075.31" meanHaltingDuration="33.29" maxHaltingDuration="148.00" haltingDurationSum="6359.00" meanIntervalHaltingDuration="33.29" maxIntervalHaltingDuration="148.00" intervalHaltingDurationSum="6359.00" startedHalts="193.00" meanVehicleNumber="0.94" maxVehicleNumber="7" />
   <interval begin="0.00" end="8480.00" id="27_1" sampledSeconds="12376.99" nVehEntered="392" nVehLeft="392" nVehSeen="392" meanSpeed="0.76" meanTimeLoss="29.50" meanOccupancy="29.67" maxOccupancy="87.58" meanMaxJamLengthInVehicles="1.21" meanMaxJamLengthInMeters="6.08" maxJamLengthInVehicles="4" maxJamLengthInMeters="20.00" jamLengthInVehiclesSum="10238" jamLengthInMetersSum="51516.02" meanHaltingDuration="36.19" maxHaltingDuration="151.00" haltingDurationSum="10098.00" meanIntervalHaltingDuration="36.19" maxIntervalHaltingDuration="151.00" intervalHaltingDurationSum="10098.00" startedHalts="293.00" meanVehicleNumber="1.50" maxVehicleNumber="4" />
   <interval begin="0.00" end="8480.00" id="27_2" sampledSeconds="12424.17" nVehEntered="357" nVehLeft="357" nVehSeen="357" meanSpeed="0.65" meanTimeLoss="33.15" meanOccupancy="29.00" maxOccupancy="80.08" meanMaxJamLengthInVehicles="1.26" meanMaxJamLengthInMeters="6.22" maxJamLengthInVehicles="4" maxJamLengthInMeters="20.00" jamLengthInVehiclesSum="10657" jamLengthInMetersSum="52742.32" meanHaltingDuration="36.85" maxHaltingDuration="152.00" haltingDurationSum="10540.00" meanIntervalHaltingDuration="36.85" maxIntervalHaltingDuration="152.00" intervalHaltingDurationSum="10540.00" startedHalts="306.00" meanVehicleNumber="1.51" maxVehicleNumber="4" />
   <interval begin="0.00" end="8480.00" id="27_3" sampledSeconds="11976.74" nVehEntered="318" nVehLeft="318" nVehSeen="318" meanSpeed="0.64" meanTimeLoss="35.93" meanOccupancy="27.76" maxOccupancy="80.08" meanMaxJamLengthInVehicles="1.22" meanMaxJamLengthInMeters="6.04" maxJamLengthInVehicles="4" maxJamLengthInMeters="20.00" jamLengthInVehiclesSum="10344" jamLengthInMetersSum="51243.07" meanHaltingDuration="39.44" maxHaltingDuration="150.00" haltingDurationSum="10294.00" meanIntervalHaltingDuration="39.44" maxIntervalHaltingDuration="150.00" intervalHaltingDurationSum="10294.00" startedHalts="270.00" meanVehicleNumber="1.45" maxVehicleNumber="4" />
   <interval begin="0.00" end="8480.00" id="27_4" sampledSeconds="0.00" nVehEntered="0" nVehLeft="0" nVehSeen="0" meanSpeed="-1.00" meanTimeLoss="-1.00" meanOccupancy="0.00" maxOccupancy="0.00" meanMaxJamLengthInVehicles="0.00" meanMaxJamLengthInMeters="0.00" maxJamLengthInVehicles="0" maxJamLengthInMeters="0.00" jamLengthInVehiclesSum="0" jamLengthInMetersSum="0.00" meanHaltingDuration="0.00" maxHaltingDuration="0.00" haltingDurationSum="0.00" meanIntervalHaltingDuration="0.00" maxIntervalHaltingDuration="0.00" intervalHaltingDurationSum="0.00" startedHalts="0.00" meanVehicleNumber="0.00" maxVehicleNumber="0" />
   <interval begin="0.00" end="8480.00" id="27_5" sampledSeconds="250.65" nVehEntered="23" nVehLeft="23" nVehSeen="23" meanSpeed="2.05" meanTimeLoss="9.29" meanOccupancy="2.58" maxOccupancy="100.00" meanMaxJamLengthInVehicles="0.02" meanMaxJamLengthInMeters="0.18" maxJamLengthInVehicles="1" maxJamLengthInMeters="10.38" jamLengthInVehiclesSum="149" jamLengthInMetersSum="1545.62" meanHaltingDuration="10.93" maxHaltingDuration="26.00" haltingDurationSum="164.00" meanIntervalHaltingDuration="10.93" maxIntervalHaltingDuration="26.00" intervalHaltingDurationSum="164.00" startedHalts="15.00" meanVehicleNumber="0.03" maxVehicleNumber="1" />
   <interval begin="0.00" end="8480.00" id="27_6" sampledSeconds="0.00" nVehEntered="0" nVehLeft="0" nVehSeen="0" meanSpeed="-1.00" meanTimeLoss="-1.00" meanOccupancy="0.00" maxOccupancy="0.00" meanMaxJamLengthInVehicles="0.00" meanMaxJamLengthInMeters="0.00" maxJamLengthInVehicles="0" maxJamLengthInMeters="0.00" jamLengthInVehiclesSum="0" jamLengthInMetersSum="0.00" meanHaltingDuration="0.00" maxHaltingDuration="0.00" haltingDurationSum="0.00" meanIntervalHaltingDuration="0.00" maxIntervalHaltingDuration="0.00" intervalHaltingDurationSum="0.00" startedHalts="0.00" meanVehicleNumber="0.00" maxVehicleNumber="0" />
   <interval begin="0.00" end="8480.00" id="27_7" sampledSeconds="10406.23" nVehEntered="360" nVehLeft="360" nVehSeen="360" meanSpeed="0.83" meanTimeLoss="27.13" meanOccupancy="25.28" maxOccupancy="85.00" meanMaxJamLengthInVehicles="1.03" meanMaxJamLengthInMeters="5.16" maxJamLengthInVehicles="4" maxJamLengthInMeters="19.64" jamLengthInVehiclesSum="8696" jamLengthInMetersSum="43746.97" meanHaltingDuration="34.90" maxHaltingDuration="152.00" haltingDurationSum="8585.00" meanIntervalHaltingDuration="34.90" maxIntervalHaltingDuration="152.00" intervalHaltingDurationSum="8585.00" startedHalts="256.00" meanVehicleNumber="1.27" maxVehicleNumber="4" />
   <interval begin="0.00" end="8480.00" id="27_8" sampledSeconds="9953.44" nVehEntered="337" nVehLeft="337" nVehSeen="337" meanSpeed="0.82" meanTimeLoss="27.80" meanOccupancy="23.92" maxOccupancy="79.98" meanMaxJamLengthInVehicles="0.98" meanMaxJamLengthInMeters="4.93" maxJamLengthInVehicles="4" maxJamLengthInMeters="20.00" jamLengthInVehiclesSum="8335" jamLengthInMetersSum="41831.86" meanHaltingDuration="34.58" maxHaltingDuration="151.00" haltingDurationSum="8265.00" meanIntervalHaltingDuration="34.58" maxIntervalHaltingDuration="151.00" intervalHaltingDurationSum="8265.00" startedHalts="245.00" meanVehicleNumber="1.21" maxVehicleNumber="4" />
   <interval begin="0.00" end="8480.00" id="27_9" sampledSeconds="782.00" nVehEntered="36" nVehLeft="36" nVehSeen="36" meanSpeed="1.10" meanTimeLoss="20.00" meanOccupancy="2.17" maxOccupancy="50.00" meanMaxJamLengthInVehicles="0.07" meanMaxJamLengthInMeters="0.36" maxJamLengthInVehicles="2" maxJamLengthInMeters="11.56" jamLengthInVehiclesSum="615" jamLengthInMetersSum="3014.74" meanHaltingDuration="26.62" maxHaltingDuration="120.00" haltingDurationSum="639.00" meanIntervalHaltingDuration="26.62" maxIntervalHaltingDuration="120.00" intervalHaltingDurationSum="639.00" startedHalts="25.00" meanVehicleNumber="0.10" maxVehicleNumber="2" />
   <interval begin="0.00" end="8480.00" id="27_10" sampledSeconds="3712.95" nVehEntered="167" nVehLeft="167" nVehSeen="167" meanSpeed="1.12" meanTimeLoss="20.15" meanOccupancy="9.72" maxOccupancy="84.19" meanMaxJamLengthInVehicles="0.34" meanMaxJamLengthInMeters="1.79" maxJamLengthInVehicles="4" maxJamLengthInMeters="20.01" jamLengthInVehiclesSum="2863" jamLengthInMetersSum="15138.88" meanHaltingDuration="23.72" maxHaltingDuration="106.00" haltingDurationSum="2989.00" meanIntervalHaltingDuration="23.72" maxIntervalHaltingDuration="106.00" intervalHaltingDurationSum="2989.00" startedHalts="126.00" meanVehicleNumber="0.46" maxVehicleNumber="4" />
   <interval begin="0.00" end="8480.00" id="27_11" sampledSeconds="867.27" nVehEntered="40" nVehLeft="40" nVehSeen="40" meanSpeed="1.35" meanTimeLoss="19.57" meanOccupancy="4.58" maxOccupancy="84.96" meanMaxJamLengthInVehicles="0.08" meanMaxJamLengthInMeters="0.77" maxJamLengthInVehicles="2" maxJamLengthInMeters="19.01" jamLengthInVehiclesSum="646" jamLengthInMetersSum="6533.17" meanHaltingDuration="21.84" maxHaltingDuration="59.00" haltingDurationSum="677.00" meanIntervalHaltingDuration="21.84" maxIntervalHaltingDuration="59.00" intervalHaltingDurationSum="677.00" startedHalts="31.00" meanVehicleNumber="0.11" maxVehicleNumber="2" />
   <interval begin="0.00" end="8480.00" id="27_12" sampledSeconds="4282.27" nVehEntered="149" nVehLeft="149" nVehSeen="149" meanSpeed="0.86" meanTimeLoss="26.81" meanOccupancy="10.69" maxOccupancy="79.49" meanMaxJamLengthInVehicles="0.40" meanMaxJamLengthInMeters="2.02" maxJamLengthInVehicles="4" maxJamLengthInMeters="19.91" jamLengthInVehiclesSum="3398" jamLengthInMetersSum="17098.12" meanHaltingDuration="22.55" maxHaltingDuration="99.00" haltingDurationSum="3541.00" meanIntervalHaltingDuration="22.55" maxIntervalHaltingDuration="99.00" intervalHaltingDurationSum="3541.00" startedHalts="163.00" meanVehicleNumber="0.52" maxVehicleNumber="4" />
   <interval begin="0.00" end="8480.00" id="27_13" sampledSeconds="8950.06" nVehEntered="488" nVehLeft="488" nVehSeen="488" meanSpeed="1.30" meanTimeLoss="16.60" meanOccupancy="21.58" maxOccupancy="85.00" meanMaxJamLengthInVehicles="0.82" meanMaxJamLengthInMeters="4.14" maxJamLengthInVehicles="4" maxJamLengthInMeters="20.00" jamLengthInVehiclesSum="6949" jamLengthInMetersSum="35077.45" meanHaltingDuration="35.28" maxHaltingDuration="150.00" haltingDurationSum="6633.00" meanIntervalHaltingDuration="35.28" maxIntervalHaltingDuration="150.00" intervalHaltingDurationSum="6633.00" startedHalts="222.00" meanVehicleNumber="1.11" maxVehicleNumber="4" />
   <interval begin="0.00" end="8480.00" id="27_14" sampledSeconds="7425.87" nVehEntered="591" nVehLeft="591" nVehSeen="591" meanSpeed="1.46" meanTimeLoss="11.24" meanOccupancy="17.85" maxOccupancy="79.98" meanMaxJamLengthInVehicles="0.68" meanMaxJamLengthInMeters="3.40" maxJamLengthInVehicles="4" maxJamLengthInMeters="20.00" jamLengthInVehiclesSum="5797" jamLengthInMetersSum="28823.28" meanHaltingDuration="30.69" maxHaltingDuration="145.00" haltingDurationSum="5218.00" meanIntervalHaltingDuration="30.69" maxIntervalHaltingDuration="145.00" intervalHaltingDurationSum="5218.00" startedHalts="218.00" meanVehicleNumber="0.93" maxVehicleNumber="4" />
   <interval begin="0.00" end="8480.00" id="27_15" sampledSeconds="5106.38" nVehEntered="223" nVehLeft="223" nVehSeen="223" meanSpeed="0.66" meanTimeLoss="21.79" meanOccupancy="11.51" maxOccupancy="75.00" meanMaxJamLengthInVehicles="0.52" meanMaxJamLengthInMeters="2.44" maxJamLengthInVehicles="4" maxJamLengthInMeters="19.04" jamLengthInVehiclesSum="4391" jamLengthInMetersSum="20697.58" meanHaltingDuration="36.90" maxHaltingDuration="146.00" haltingDurationSum="4244.00" meanIntervalHaltingDuration="36.90" maxIntervalHaltingDuration="146.00" intervalHaltingDurationSum="4244.00" startedHalts="127.00" meanVehicleNumber="0.62" maxVehicleNumber="4" />
   <interval begin="0.00" end="8480.00" id="27_16" sampledSeconds="2097.33" nVehEntered="367" nVehLeft="367" nVehSeen="367" meanSpeed="4.26" meanTimeLoss="3.92" meanOccupancy="5.18" maxOccupancy="74.12" meanMaxJamLengthInVehicles="0.13" meanMaxJamLengthInMeters="0.71" maxJamLengthInVehicles="4" maxJamLengthInMeters="19.36" jamLengthInVehiclesSum="1143" jamLengthInMetersSum="6056.76" meanHaltingDuration="35.21" maxHaltingDuration="95.00" haltingDurationSum="1021.00" meanIntervalHaltingDuration="35.21" maxIntervalHaltingDuration="95.00" intervalHaltingDurationSum="1021.00" startedHalts="39.00" meanVehicleNumber="0.29" maxVehicleNumber="4" />
   <interval begin="0.00" end="8480.00" id="27_17" sampledSeconds="1896.62" nVehEntered="312" nVehLeft="312" nVehSeen="312" meanSpeed="3.86" meanTimeLoss="4.41" meanOccupancy="4.41" maxOccupancy="77.86" meanMaxJamLengthInVehicles="0.14" meanMaxJamLengthInMeters="0.67" maxJamLengthInVehicles="4" maxJamLengthInMeters="19.67" jamLengthInVehiclesSum="1145" jamLengthInMetersSum="5644.53" meanHaltingDuration="38.61" maxHaltingDuration="95.00" haltingDurationSum="888.00" meanIntervalHaltingDuration="38.61" maxIntervalHaltingDuration="95.00" intervalHaltingDurationSum="888.00" startedHalts="33.00" meanVehicleNumber="0.26" maxVehicleNumber="4" />
   <interval begin="0.00" end="8480.00" id="27_18" sampledSeconds="159.14" nVehEntered="79" nVehLeft="79" nVehSeen="79" meanSpeed="11.28" meanTimeLoss="0.39" meanOccupancy="0.37" maxOccupancy="25.00" meanMaxJamLengthInVehicles="0.00" meanMaxJamLengthInMeters="0.00" maxJamLengthInVehicles="0" maxJamLengthInMeters="0.00" jamLengthInVehiclesSum="0" jamLengthInMetersSum="0.00" meanHaltingDuration="0.00" maxHaltingDuration="0.00" haltingDurationSum="0.00" meanIntervalHaltingDuration="0.00" maxIntervalHaltingDuration="0.00" intervalHaltingDurationSum="0.00" startedHalts="0.00" meanVehicleNumber="0.03" maxVehicleNumber="2" />
   <interval begin="0.00" end="8480.00" id="27_19" sampledSeconds="825.39" nVehEntered="357" nVehLeft="357" nVehSeen="357" meanSpeed="10.92" meanTimeLoss="0.47" meanOccupancy="2.00" maxOccupancy="60.00" meanMaxJamLengthInVehicles="0.00" meanMaxJamLengthInMeters="0.00" maxJamLengthInVehicles="0" maxJamLengthInMeters="0.00" jamLengthInVehiclesSum="0" jamLengthInMetersSum="0.00" meanHaltingDuration="0.00" maxHaltingDuration="0.00" haltingDurationSum="0.00" meanIntervalHaltingDuration="0.00" maxIntervalHaltingDuration="0.00" intervalHaltingDurationSum="0.00" startedHalts="0.00" meanVehicleNumber="0.14" maxVehicleNumber="2" />
   <interval begin="0.00" end="8480.00" id="27_20" sampledSeconds="35912.22" nVehEntered="490" nVehLeft="490" nVehSeen="490" meanSpeed="0.99" meanTimeLoss="67.74" meanOccupancy="26.18" maxOccupancy="81.74" meanMaxJamLengthInVehicles="3.36" meanMaxJamLengthInMeters="20.96" maxJamLengthInVehicles="13" maxJamLengthInMeters="79.52" jamLengthInVehiclesSum="28753" jamLengthInMetersSum="178944.20" meanHaltingDuration="35.75" maxHaltingDuration="152.00" haltingDurationSum="29030.00" meanIntervalHaltingDuration="35.75" maxIntervalHaltingDuration="152.00" intervalHaltingDurationSum="29030.00" startedHalts="844.00" meanVehicleNumber="4.28" maxVehicleNumber="13" />
   <interval begin="0.00" end="8480.00" id="27_21" sampledSeconds="33605.96" nVehEntered="664" nVehLeft="664" nVehSeen="664" meanSpeed="0.93" meanTimeLoss="47.19" meanOccupancy="24.01" maxOccupancy="79.23" meanMaxJamLengthInVehicles="3.23" meanMaxJamLengthInMeters="19.75" maxJamLengthInVehicles="13" maxJamLengthInMeters="79.52" jamLengthInVehiclesSum="27812" jamLengthInMetersSum="169935.69" meanHaltingDuration="35.94" maxHaltingDuration="179.00" haltingDurationSum="27888.00" meanIntervalHaltingDuration="35.94" maxIntervalHaltingDuration="179.00" intervalHaltingDurationSum="27888.00" startedHalts="828.00" meanVehicleNumber="4.02" maxVehicleNumber="13" />
   <interval begin="0.00" end="8480.00" id="27_22" sampledSeconds="29915.96" nVehEntered="323" nVehLeft="323" nVehSeen="323" meanSpeed="0.67" meanTimeLoss="88.16" meanOccupancy="21.21" maxOccupancy="76.71" meanMaxJamLengthInVehicles="2.99" meanMaxJamLengthInMeters="18.15" maxJamLengthInVehicles="13" maxJamLengthInMeters="78.56" jamLengthInVehiclesSum="25583" jamLengthInMetersSum="155375.88" meanHaltingDuration="38.99" maxHaltingDuration="150.00" haltingDurationSum="25927.00" meanIntervalHaltingDuration="38.99" maxIntervalHaltingDuration="150.00" intervalHaltingDurationSum="25927.00" startedHalts="677.00" meanVehicleNumber="3.55" maxVehicleNumber="13" />
   <interval begin="0.00" end="8480.00" id="27_23" sampledSeconds="0.00" nVehEntered="0" nVehLeft="0" nVehSeen="0" meanSpeed="-1.00" meanTimeLoss="-1.00" meanOccupancy="0.00" maxOccupancy="0.00" meanMaxJamLengthInVehicles="0.00" meanMaxJamLengthInMeters="0.00" maxJamLengthInVehicles="0" maxJamLengthInMeters="0.00" jamLengthInVehiclesSum="0" jamLengthInMetersSum="0.00" meanHaltingDuration="0.00" maxHaltingDuration="0.00" haltingDurationSum="0.00" meanIntervalHaltingDuration="0.00" maxIntervalHaltingDuration="0.00" intervalHaltingDurationSum="0.00" startedHalts="0.00" meanVehicleNumber="0.00" maxVehicleNumber="0" />
   <interval begin="0.00" end="8480.00" id="27_24" sampledSeconds="250.65" nVehEntered="23" nVehLeft="23" nVehSeen="23" meanSpeed="2.05" meanTimeLoss="9.29" meanOccupancy="2.58" maxOccupancy="100.00" meanMaxJamLengthInVehicles="0.02" meanMaxJamLengthInMeters="0.18" maxJamLengthInVehicles="1" maxJamLengthInMeters="10.38" jamLengthInVehiclesSum="149" jamLengthInMetersSum="1545.62" meanHaltingDuration="10.93" maxHaltingDuration="26.00" haltingDurationSum="164.00" meanIntervalHaltingDuration="10.93" maxIntervalHaltingDuration="26.00" intervalHaltingDurationSum="164.00" startedHalts="15.00" meanVehicleNumber="0.03" maxVehicleNumber="1" />
   <interval begin="0.00" end="8480.00" id="27_25" sampledSeconds="0.00" nVehEntered="0" nVehLeft="0" nVehSeen="0" meanSpeed="-1.00" meanTimeLoss="-1.00" meanOccupancy="0.00" maxOccupancy="0.00" meanMaxJamLengthInVehicles="0.00" meanMaxJamLengthInMeters="0.00" maxJamLengthInVehicles="0" maxJamLengthInMeters="0.00" jamLengthInVehiclesSum="0" jamLengthInMetersSum="0.00" meanHaltingDuration="0.00" maxHaltingDuration="0.00" haltingDurationSum="0.00" meanIntervalHaltingDuration="0.00" maxIntervalHaltingDuration="0.00" intervalHaltingDurationSum="0.00" startedHalts="0.00" meanVehicleNumber="0.00" maxVehicleNumber="0" />
   <interval begin="0.00" end="8480.00" id="27_26" sampledSeconds="1150.67" nVehEntered="24" nVehLeft="24" nVehSeen="24" meanSpeed="3.47" meanTimeLoss="35.96" meanOccupancy="0.99" maxOccupancy="23.05" meanMaxJamLengthInVehicles="0.07" meanMaxJamLengthInMeters="0.94" maxJamLengthInVehicles="3" maxJamLengthInMeters="42.06" jamLengthInVehiclesSum="633" jamLengthInMetersSum="7966.29" meanHaltingDuration="21.42" maxHaltingDuration="24.00" haltingDurationSum="664.00" meanIntervalHaltingDuration="21.42" maxIntervalHaltingDuration="24.00" intervalHaltingDurationSum="664.00" startedHalts="31.00" meanVehicleNumber="0.14" maxVehicleNumber="3" />
   <interval begin="0.00" end="8480.00" id="27_27" sampledSeconds="0.00" nVehEntered="0" nVehLeft="0" nVehSeen="0" meanSpeed="-1.00" meanTimeLoss="-1.00" meanOccupancy="0.00" maxOccupancy="0.00" meanMaxJamLengthInVehicles="0.00" meanMaxJamLengthInMeters="0.00" maxJamLengthInVehicles="0" maxJamLengthInMeters="0.00" jamLengthInVehiclesSum="0" jamLengthInMetersSum="0.00" meanHaltingDuration="0.00" maxHaltingDuration="0.00" haltingDurationSum="0.00" meanIntervalHaltingDuration="0.00" maxIntervalHaltingDuration="0.00" intervalHaltingDurationSum="0.00" startedHalts="0.00" meanVehicleNumber="0.00" maxVehicleNumber="0" />
   <interval begin="0.00" end="8480.00" id="27_28" sampledSeconds="22583.44" nVehEntered="375" nVehLeft="375" nVehSeen="375" meanSpeed="0.98" meanTimeLoss="55.90" meanOccupancy="22.27" maxOccupancy="80.56" meanMaxJamLengthInVehicles="2.17" meanMaxJamLengthInMeters="13.05" maxJamLengthInVehicles="10" maxJamLengthInMeters="57.10" jamLengthInVehiclesSum="18444" jamLengthInMetersSum="110814.43" meanHaltingDuration="34.93" maxHaltingDuration="152.00" haltingDurationSum="18619.00" meanIntervalHaltingDuration="34.93" maxIntervalHaltingDuration="152.00" intervalHaltingDurationSum="18619.00" startedHalts="544.00" meanVehicleNumber="2.70" maxVehicleNumber="10" />