<?xml version="1.0" encoding="UTF-8"?>

<!-- generated on 2025-10-20 17:21:12 by Eclipse SUMO libsumo Version 1.24.0
<libsumoConfiguration xmlns:xsi="http://www.w3.org/2001/XMLSchema-instance" xsi:noNamespaceSchemaLocation="http://sumo.dlr.de/xsd/libsumoConfiguration.xsd">

    <input>
        <net-file value="/home/julesbompard/Documents/Projets/sumo-experiments/src/sumo_experiments/preset_networks/bologna/acosta/acosta_buslanes.net.xml"/>
        <route-files value="/home/julesbompard/Documents/Projets/sumo-experiments/src/sumo_experiments/preset_networks/bologna/acosta/acosta_96100.rou.xml,/home/julesbompard/Documents/Projets/sumo-experiments/src/sumo_experiments/preset_networks/bologna/acosta/acosta_busses.rou.xml"/>
        <additional-files value="/home/julesbompard/Documents/Projets/sumo-experiments/src/sumo_experiments/preset_networks/bologna/acosta/acosta_tls.add.xml,/home/julesbompard/Documents/Projets/sumo-experiments/src/sumo_experiments/preset_networks/bologna/acosta/acosta_vtypes.add.xml,/home/julesbompard/Documents/Projets/sumo-experiments/src/sumo_experiments/preset_networks/bologna/acosta/acosta_detectors.add.xml,/home/julesbompard/Documents/Projets/sumo-experiments/src/sumo_experiments/preset_networks/bologna/acosta/acosta_bus_stops.add.xml"/>
    </input>

    <output>
        <tripinfo-output value="/home/julesbompard/Documents/Projets/sumo-experiments/src/sumo_experiments/preset_networks/bologna/acosta/tripinfos.xml"/>
    </output>

    <processing>
        <threads value="8"/>
        <time-to-teleport value="150"/>
    </processing>

    <report>
        <no-warnings value="true"/>
        <log value="/home/julesbompard/Documents/Projets/sumo-experiments/src/sumo_experiments/preset_networks/bologna/acosta/sumo_log.txt"/>
        <no-step-log value="true"/>
    </report>

    <random_number>
        <random value="true"/>
    </random_number>

    <gui_only>
        <gui-settings-file value="/home/julesbompard/Documents/Projets/sumo-experiments/src/sumo_experiments/preset_networks/bologna/acosta/settings.gui.xml"/>
    </gui_only>

</libsumoConfiguration>
-->

<detector xmlns:xsi="http://www.w3.org/2001/XMLSchema-instance" xsi:noNamespaceSchemaLocation="http://sumo.dlr.de/xsd/det_e2_file.xsd">
   <interval begin="0.00" end="10257.00" id="34_1" sampledSeconds="1804.52" nVehEntered="224" nVehLeft="224" nVehSeen="224" meanSpeed="3.08" meanTimeLoss="6.12" meanOccupancy="3.85" maxOccupancy="82.38" meanMaxJamLengthInVehicles="0.09" meanMaxJamLengthInMeters="0.48" maxJamLengthInVehicles="4" maxJamLengthInMeters="20.00" jamLengthInVehiclesSum="949" jamLengthInMetersSum="4899.91" meanHaltingDuration="11.31" maxHaltingDuration="35.00" haltingDurationSum="1041.00" meanIntervalHaltingDuration="11.31" maxIntervalHaltingDuration="35.00" intervalHaltingDurationSum="1041.00" startedHalts="92.00" meanVehicleNumber="0.20" maxVehicleNumber="4" />
   <interval begin="0.00" end="10257.00" id="34_2" sampledSeconds="2185.31" nVehEntered="245" nVehLeft="245" nVehSeen="245" meanSpeed="2.78" meanTimeLoss="6.62" meanOccupancy="4.52" maxOccupancy="77.68" meanMaxJamLengthInVehicles="0.10" meanMaxJamLengthInMeters="0.53" maxJamLengthInVehicles="4" maxJamLengthInMeters="19.54" jamLengthInVehiclesSum="1053" jamLengthInMetersSum="5389.70" meanHaltingDuration="10.00" maxHaltingDuration="41.00" haltingDurationSum="1170.00" meanIntervalHaltingDuration="10.00" maxIntervalHaltingDuration="41.00" intervalHaltingDurationSum="1170.00" startedHalts="117.00" meanVehicleNumber="0.24" maxVehicleNumber="4" />
   <interval begin="0.00" end="10257.00" id="34_3" sampledSeconds="8408.80" nVehEntered="408" nVehLeft="408" nVehSeen="408" meanSpeed="1.07" meanTimeLoss="18.91" meanOccupancy="18.76" maxOccupancy="85.00" meanMaxJamLengthInVehicles="0.65" meanMaxJamLengthInMeters="3.55" maxJamLengthInVehicles="4" maxJamLengthInMeters="19.38" jamLengthInVehiclesSum="6716" jamLengthInMetersSum="36414.20" meanHaltingDuration="30.10" maxHaltingDuration="134.00" haltingDurationSum="6894.00" meanIntervalHaltingDuration="30.10" maxIntervalHaltingDuration="134.00" intervalHaltingDurationSum="6894.00" startedHalts="254.00" meanVehicleNumber="0.86" maxVehicleNumber="4" />
   <interval begin="0.00" end="10257.00" id="34_4" sampledSeconds="6721.74" nVehEntered="365" nVehLeft="365" nVehSeen="365" meanSpeed="1.09" meanTimeLoss="16.96" meanOccupancy="14.65" maxOccupancy="79.38" meanMaxJamLengthInVehicles="0.52" meanMaxJamLengthInMeters="2.73" maxJamLengthInVehicles="4" maxJamLengthInMeters="20.00" jamLengthInVehiclesSum="5358" jamLengthInMetersSum="28032.84" meanHaltingDuration="28.16" maxHaltingDuration="135.00" haltingDurationSum="5464.00" meanIntervalHaltingDuration="28.16" maxIntervalHaltingDuration="135.00" intervalHaltingDurationSum="5464.00" startedHalts="226.00" meanVehicleNumber="0.68" maxVehicleNumber="4" />
   <interval begin="0.00" end="10257.00" id="34_5" sampledSeconds="4696.32" nVehEntered="191" nVehLeft="191" nVehSeen="191" meanSpeed="0.92" meanTimeLoss="23.00" meanOccupancy="10.29" maxOccupancy="79.38" meanMaxJamLengthInVehicles="0.37" meanMaxJamLengthInMeters="1.97" maxJamLengthInVehicles="4" maxJamLengthInMeters="20.00" jamLengthInVehiclesSum="3775" jamLengthInMetersSum="20187.72" meanHaltingDuration="25.84" maxHaltingDuration="133.00" haltingDurationSum="3927.00" meanIntervalHaltingDuration="25.84" maxIntervalHaltingDuration="133.00" intervalHaltingDurationSum="3927.00" startedHalts="152.00" meanVehicleNumber="0.47" maxVehicleNumber="4" />
   <interval begin="0.00" end="10257.00" id="34_6" sampledSeconds="514.57" nVehEntered="245" nVehLeft="245" nVehSeen="245" meanSpeed="11.82" meanTimeLoss="0.30" meanOccupancy="0.96" maxOccupancy="30.17" meanMaxJamLengthInVehicles="0.00" meanMaxJamLengthInMeters="0.00" maxJamLengthInVehicles="0" maxJamLengthInMeters="0.00" jamLengthInVehiclesSum="0" jamLengthInMetersSum="0.00" meanHaltingDuration="0.00" maxHaltingDuration="0.00" haltingDurationSum="0.00" meanIntervalHaltingDuration="0.00" maxIntervalHaltingDuration="0.00" intervalHaltingDurationSum="0.00" startedHalts="0.00" meanVehicleNumber="0.07" maxVehicleNumber="2" />
   <interval begin="0.00" end="10257.00" id="34_7" sampledSeconds="1115.99" nVehEntered="520" nVehLeft="520" nVehSeen="520" meanSpeed="11.51" meanTimeLoss="0.33" meanOccupancy="2.12" maxOccupancy="60.00" meanMaxJamLengthInVehicles="0.00" meanMaxJamLengthInMeters="0.00" maxJamLengthInVehicles="0" maxJamLengthInMeters="0.00" jamLengthInVehiclesSum="0" jamLengthInMetersSum="0.00" meanHaltingDuration="0.00" maxHaltingDuration="0.00" haltingDurationSum="0.00" meanIntervalHaltingDuration="0.00" maxIntervalHaltingDuration="0.00" intervalHaltingDurationSum="0.00" startedHalts="0.00" meanVehicleNumber="0.16" maxVehicleNumber="3" />
   <interval begin="0.00" end="10257.00" id="34_8" sampledSeconds="583.46" nVehEntered="325" nVehLeft="325" nVehSeen="325" meanSpeed="12.71" meanTimeLoss="0.16" meanOccupancy="1.12" maxOccupancy="30.19" meanMaxJamLengthInVehicles="0.00" meanMaxJamLengthInMeters="0.00" maxJamLengthInVehicles="0" maxJamLengthInMeters="0.00" jamLengthInVehiclesSum="0" jamLengthInMetersSum="0.00" meanHaltingDuration="0.00" maxHaltingDuration="0.00" haltingDurationSum="0.00" meanIntervalHaltingDuration="0.00" maxIntervalHaltingDuration="0.00" intervalHaltingDurationSum="0.00" startedHalts="0.00" meanVehicleNumber="0.09" maxVehicleNumber="2" />
   <interval begin="0.00" end="10257.00" id="34_9" sampledSeconds="26.57" nVehEntered="34" nVehLeft="34" nVehSeen="34" meanSpeed="13.94" meanTimeLoss="0.08" meanOccupancy="0.02" maxOccupancy="25.00" meanMaxJamLengthInVehicles="0.00" meanMaxJamLengthInMeters="0.00" maxJamLengthInVehicles="0" maxJamLengthInMeters="0.00" jamLengthInVehiclesSum="0" jamLengthInMetersSum="0.00" meanHaltingDuration="0.00" maxHaltingDuration="0.00" haltingDurationSum="0.00" meanIntervalHaltingDuration="0.00" maxIntervalHaltingDuration="0.00" intervalHaltingDurationSum="0.00" startedHalts="0.00" meanVehicleNumber="0.00" maxVehicleNumber="1" />
   <interval begin="0.00" end="10257.00" id="34_10" sampledSeconds="1803.87" nVehEntered="224" nVehLeft="224" nVehSeen="224" meanSpeed="3.08" meanTimeLoss="6.12" meanOccupancy="3.85" maxOccupancy="82.46" meanMaxJamLengthInVehicles="0.09" meanMaxJamLengthInMeters="0.48" maxJamLengthInVehicles="4" maxJamLengthInMeters="19.98" jamLengthInVehiclesSum="949" jamLengthInMetersSum="4899.81" meanHaltingDuration="11.31" maxHaltingDuration="35.00" haltingDurationSum="1041.00" meanIntervalHaltingDuration="11.31" maxIntervalHaltingDuration="35.00" intervalHaltingDurationSum="1041.00" startedHalts="92.00" meanVehicleNumber="0.20" maxVehicleNumber="4" />
   <interval begin="0.00" end="10257.00" id="34_11" sampledSeconds="3194.73" nVehEntered="230" nVehLeft="230" nVehSeen="230" meanSpeed="13.11" meanTimeLoss="0.81" meanOccupancy="0.81" maxOccupancy="11.11" meanMaxJamLengthInVehicles="0.00" meanMaxJamLengthInMeters="0.01" maxJamLengthInVehicles="1" maxJamLengthInMeters="5.00" jamLengthInVehiclesSum="12" jamLengthInMetersSum="58.46" meanHaltingDuration="7.00" maxHaltingDuration="12.00" haltingDurationSum="14.00" meanIntervalHaltingDuration="7.00" maxIntervalHaltingDuration="12.00" intervalHaltingDurationSum="14.00" startedHalts="2.00" meanVehicleNumber="0.33" maxVehicleNumber="4" />
   <interval begin="0.00" end="10257.00" id="34_12" sampledSeconds="4550.65" nVehEntered="245" nVehLeft="245" nVehSeen="245" meanSpeed="7.13" meanTimeLoss="8.51" meanOccupancy="1.61" maxOccupancy="29.40" meanMaxJamLengthInVehicles="0.12" meanMaxJamLengthInMeters="0.64" maxJamLengthInVehicles="6" maxJamLengthInMeters="36.82" jamLengthInVehiclesSum="1187" jamLengthInMetersSum="6555.19" meanHaltingDuration="10.20" maxHaltingDuration="41.00" haltingDurationSum="1316.00" meanIntervalHaltingDuration="10.20" maxIntervalHaltingDuration="41.00" intervalHaltingDurationSum="1316.00" startedHalts="129.00" meanVehicleNumber="0.47" maxVehicleNumber="8" />
   <interval begin="0.00" end="10257.00" id="34_13" sampledSeconds="11551.25" nVehEntered="530" nVehLeft="530" nVehSeen="530" meanSpeed="3.32" meanTimeLoss="16.41" meanOccupancy="6.91" maxOccupancy="46.87" meanMaxJamLengthInVehicles="0.70" meanMaxJamLengthInMeters="4.04" maxJamLengthInVehicles="6" maxJamLengthInMeters="39.91" jamLengthInVehiclesSum="7192" jamLengthInMetersSum="41479.85" meanHaltingDuration="30.19" maxHaltingDuration="134.00" haltingDurationSum="7367.00" meanIntervalHaltingDuration="30.19" maxIntervalHaltingDuration="134.00" intervalHaltingDurationSum="7367.00" startedHalts="285.00" meanVehicleNumber="1.17" maxVehicleNumber="8" />
   <interval begin="0.00" end="10257.00" id="34_14" sampledSeconds="8340.23" nVehEntered="493" nVehLeft="493" nVehSeen="493" meanSpeed="3.00" meanTimeLoss="13.26" meanOccupancy="4.80" maxOccupancy="35.27" meanMaxJamLengthInVehicles="0.54" meanMaxJamLengthInMeters="2.94" maxJamLengthInVehicles="6" maxJamLengthInMeters="34.56" jamLengthInVehiclesSum="5524" jamLengthInMetersSum="30137.13" meanHaltingDuration="28.02" maxHaltingDuration="135.00" haltingDurationSum="5633.00" meanIntervalHaltingDuration="28.02" maxIntervalHaltingDuration="135.00" intervalHaltingDurationSum="5633.00" startedHalts="239.00" meanVehicleNumber="0.84" maxVehicleNumber="6" />
   <interval begin="0.00" end="10257.00" id="34_15" sampledSeconds="4949.99" nVehEntered="191" nVehLeft="191" nVehSeen="191" meanSpeed="1.33" meanTimeLoss="23.54" meanOccupancy="2.83" maxOccupancy="30.86" meanMaxJamLengthInVehicles="0.38" meanMaxJamLengthInMeters="2.09" maxJamLengthInVehicles="5" maxJamLengthInMeters="30.03" jamLengthInVehiclesSum="3849" jamLengthInMetersSum="21468.87" meanHaltingDuration="25.83" maxHaltingDuration="133.00" haltingDurationSum="4004.00" meanIntervalHaltingDuration="25.83" maxIntervalHaltingDuration="133.00" intervalHaltingDurationSum="4004.00" startedHalts="155.00" meanVehicleNumber="0.49" maxVehicleNumber="5" />
   <interval begin="0.00" end="10257.00" id="27_1" sampledSeconds="13118.63" nVehEntered="363" nVehLeft="363" nVehSeen="363" meanSpeed="0.66" meanTimeLoss="34.07" meanOccupancy="26.37" maxOccupancy="85.08" meanMaxJamLengthInVehicles="1.08" meanMaxJamLengthInMeters="5.53" maxJamLengthInVehicles="4" maxJamLengthInMeters="20.00" jamLengthInVehiclesSum="11041" jamLengthInMetersSum="56715.83" meanHaltingDuration="38.31" maxHaltingDuration="147.00" haltingDurationSum="10726.00" meanIntervalHaltingDuration="38.31" maxIntervalHaltingDuration="147.00" intervalHaltingDurationSum="10726.00" startedHalts="302.00" meanVehicleNumber="1.31" maxVehicleNumber="4" />
   <interval begin="0.00" end="10257.00" id="27_2" sampledSeconds="12635.83" nVehEntered="385" nVehLeft="385" nVehSeen="385" meanSpeed="0.66" meanTimeLoss="31.25" meanOccupancy="24.76" maxOccupancy="80.08" meanMaxJamLengthInVehicles="1.05" meanMaxJamLengthInMeters="5.28" maxJamLengthInVehicles="4" maxJamLengthInMeters="20.00" jamLengthInVehiclesSum="10821" jamLengthInMetersSum="54197.69" meanHaltingDuration="35.20" maxHaltingDuration="152.00" haltingDurationSum="10313.00" meanIntervalHaltingDuration="35.20" maxIntervalHaltingDuration="152.00" intervalHaltingDurationSum="10313.00" startedHalts="329.00" meanVehicleNumber="1.27" maxVehicleNumber="4" />
   <interval begin="0.00" end="10257.00" id="27_3" sampledSeconds="11846.20" nVehEntered="332" nVehLeft="332" nVehSeen="332" meanSpeed="0.66" meanTimeLoss="33.98" meanOccupancy="23.09" maxOccupancy="80.08" meanMaxJamLengthInVehicles="0.99" meanMaxJamLengthInMeters="4.95" maxJamLengthInVehicles="4" maxJamLengthInMeters="20.00" jamLengthInVehiclesSum="10190" jamLengthInMetersSum="50788.30" meanHaltingDuration="37.75" maxHaltingDuration="152.00" haltingDurationSum="9852.00" meanIntervalHaltingDuration="37.75" maxIntervalHaltingDuration="152.00" intervalHaltingDurationSum="9852.00" startedHalts="276.00" meanVehicleNumber="1.19" maxVehicleNumber="4" />
   <interval begin="0.00" end="10257.00" id="27_4" sampledSeconds="0.00" nVehEntered="0" nVehLeft="0" nVehSeen="0" meanSpeed="-1.00" meanTimeLoss="-1.00" meanOccupancy="0.00" maxOccupancy="0.00" meanMaxJamLengthInVehicles="0.00" meanMaxJamLengthInMeters="0.00" maxJamLengthInVehicles="0" maxJamLengthInMeters="0.00" jamLengthInVehiclesSum="0" jamLengthInMetersSum="0.00" meanHaltingDuration="0.00" maxHaltingDuration="0.00" haltingDurationSum="0.00" meanIntervalHaltingDuration="0.00" maxIntervalHaltingDuration="0.00" intervalHaltingDurationSum="0.00" startedHalts="0.00" meanVehicleNumber="0.00" maxVehicleNumber="0" />
   <interval begin="0.00" end="10257.00" id="27_5" sampledSeconds="375.77" nVehEntered="23" nVehLeft="23" nVehSeen="23" meanSpeed="1.37" meanTimeLoss="14.73" meanOccupancy="3.35" maxOccupancy="100.00" meanMaxJamLengthInVehicles="0.03" meanMaxJamLengthInMeters="0.28" maxJamLengthInVehicles="1" maxJamLengthInMeters="10.38" jamLengthInVehiclesSum="277" jamLengthInMetersSum="2873.45" meanHaltingDuration="19.47" maxHaltingDuration="63.00" haltingDurationSum="292.00" meanIntervalHaltingDuration="19.47" maxIntervalHaltingDuration="63.00" intervalHaltingDurationSum="292.00" startedHalts="15.00" meanVehicleNumber="0.04" maxVehicleNumber="1" />
   <interval begin="0.00" end="10257.00" id="27_6" sampledSeconds="0.00" nVehEntered="0" nVehLeft="0" nVehSeen="0" meanSpeed="-1.00" meanTimeLoss="-1.00" meanOccupancy="0.00" maxOccupancy="0.00" meanMaxJamLengthInVehicles="0.00" meanMaxJamLengthInMeters="0.00" maxJamLengthInVehicles="0" maxJamLengthInMeters="0.00" jamLengthInVehiclesSum="0" jamLengthInMetersSum="0.00" meanHaltingDuration="0.00" maxHaltingDuration="0.00" haltingDurationSum="0.00" meanIntervalHaltingDuration="0.00" maxIntervalHaltingDuration="0.00" intervalHaltingDurationSum="0.00" startedHalts="0.00" meanVehicleNumber="0.00" maxVehicleNumber="0" />
   <interval begin="0.00" end="10257.00" id="27_7" sampledSeconds="8668.57" nVehEntered="363" nVehLeft="363" nVehSeen="363" meanSpeed="1.00" meanTimeLoss="22.12" meanOccupancy="19.04" maxOccupancy="85.00" meanMaxJamLengthInVehicles="0.68" meanMaxJamLengthInMeters="3.68" maxJamLengthInVehicles="4" maxJamLengthInMeters="20.00" jamLengthInVehiclesSum="7010" jamLengthInMetersSum="37779.89" meanHaltingDuration="29.93" maxHaltingDuration="128.00" haltingDurationSum="7242.00" meanIntervalHaltingDuration="29.93" maxIntervalHaltingDuration="128.00" intervalHaltingDurationSum="7242.00" startedHalts="248.00" meanVehicleNumber="0.88" maxVehicleNumber="4" />
   <interval begin="0.00" end="10257.00" id="27_8" sampledSeconds="8019.96" nVehEntered="322" nVehLeft="322" nVehSeen="322" meanSpeed="0.97" meanTimeLoss="23.18" meanOccupancy="16.58" maxOccupancy="77.98" meanMaxJamLengthInVehicles="0.63" meanMaxJamLengthInMeters="3.26" maxJamLengthInVehicles="4" maxJamLengthInMeters="19.10" jamLengthInVehiclesSum="6466" jamLengthInMetersSum="33432.43" meanHaltingDuration="28.74" maxHaltingDuration="127.00" haltingDurationSum="6668.00" meanIntervalHaltingDuration="28.74" maxIntervalHaltingDuration="127.00" intervalHaltingDurationSum="6668.00" startedHalts="238.00" meanVehicleNumber="0.81" maxVehicleNumber="4" />
   <interval begin="0.00" end="10257.00" id="27_9" sampledSeconds="1257.93" nVehEntered="35" nVehLeft="35" nVehSeen="35" meanSpeed="0.69" meanTimeLoss="34.09" meanOccupancy="2.96" maxOccupancy="72.50" meanMaxJamLengthInVehicles="0.11" meanMaxJamLengthInMeters="0.57" maxJamLengthInVehicles="3" maxJamLengthInMeters="17.52" jamLengthInVehiclesSum="1098" jamLengthInMetersSum="5887.93" meanHaltingDuration="42.17" maxHaltingDuration="148.00" haltingDurationSum="970.00" meanIntervalHaltingDuration="42.17" maxIntervalHaltingDuration="148.00" intervalHaltingDurationSum="970.00" startedHalts="24.00" meanVehicleNumber="0.13" maxVehicleNumber="3" />
   <interval begin="0.00" end="10257.00" id="27_10" sampledSeconds="5467.21" nVehEntered="171" nVehLeft="171" nVehSeen="171" meanSpeed="0.78" meanTimeLoss="29.90" meanOccupancy="11.49" maxOccupancy="79.99" meanMaxJamLengthInVehicles="0.44" meanMaxJamLengthInMeters="2.31" maxJamLengthInVehicles="4" maxJamLengthInMeters="19.91" jamLengthInVehiclesSum="4523" jamLengthInMetersSum="23652.54" meanHaltingDuration="29.57" maxHaltingDuration="136.00" haltingDurationSum="4525.00" meanIntervalHaltingDuration="29.57" maxIntervalHaltingDuration="136.00" intervalHaltingDurationSum="4525.00" startedHalts="154.00" meanVehicleNumber="0.55" maxVehicleNumber="4" />
   <interval begin="0.00" end="10257.00" id="27_11" sampledSeconds="1246.90" nVehEntered="41" nVehLeft="41" nVehSeen="41" meanSpeed="0.95" meanTimeLoss="28.29" meanOccupancy="5.05" maxOccupancy="82.46" meanMaxJamLengthInVehicles="0.10" meanMaxJamLengthInMeters="0.92" maxJamLengthInVehicles="3" maxJamLengthInMeters="20.01" jamLengthInVehiclesSum="1033" jamLengthInMetersSum="9465.10" meanHaltingDuration="35.43" maxHaltingDuration="143.00" haltingDurationSum="1063.00" meanIntervalHaltingDuration="35.43" maxIntervalHaltingDuration="143.00" intervalHaltingDurationSum="1063.00" startedHalts="30.00" meanVehicleNumber="0.13" maxVehicleNumber="3" />
   <interval begin="0.00" end="10257.00" id="27_12" sampledSeconds="7259.56" nVehEntered="134" nVehLeft="134" nVehSeen="134" meanSpeed="0.45" meanTimeLoss="52.27" meanOccupancy="14.76" maxOccupancy="81.99" meanMaxJamLengthInVehicles="0.63" meanMaxJamLengthInMeters="3.18" maxJamLengthInVehicles="4" maxJamLengthInMeters="20.01" jamLengthInVehiclesSum="6458" jamLengthInMetersSum="32651.34" meanHaltingDuration="39.78" maxHaltingDuration="165.00" haltingDurationSum="6127.00" meanIntervalHaltingDuration="39.78" maxIntervalHaltingDuration="165.00" intervalHaltingDurationSum="6127.00" startedHalts="163.00" meanVehicleNumber="0.72" maxVehicleNumber="4" />
   <interval begin="0.00" end="10257.00" id="27_13" sampledSeconds="7487.42" nVehEntered="469" nVehLeft="469" nVehSeen="469" meanSpeed="1.49" meanTimeLoss="14.22" meanOccupancy="15.24" maxOccupancy="85.00" meanMaxJamLengthInVehicles="0.55" meanMaxJamLengthInMeters="2.84" maxJamLengthInVehicles="4" maxJamLengthInMeters="20.00" jamLengthInVehiclesSum="5629" jamLengthInMetersSum="29169.11" meanHaltingDuration="31.60" maxHaltingDuration="104.00" haltingDurationSum="5404.00" meanIntervalHaltingDuration="31.60" maxIntervalHaltingDuration="104.00" intervalHaltingDurationSum="5404.00" startedHalts="208.00" meanVehicleNumber="0.77" maxVehicleNumber="4" />
   <interval begin="0.00" end="10257.00" id="27_14" sampledSeconds="5524.71" nVehEntered="622" nVehLeft="622" nVehSeen="622" meanSpeed="2.23" meanTimeLoss="7.46" meanOccupancy="10.71" maxOccupancy="79.98" meanMaxJamLengthInVehicles="0.38" meanMaxJamLengthInMeters="1.86" maxJamLengthInVehicles="4" maxJamLengthInMeters="20.00" jamLengthInVehiclesSum="3949" jamLengthInMetersSum="19105.68" meanHaltingDuration="30.05" maxHaltingDuration="153.00" haltingDurationSum="3606.00" meanIntervalHaltingDuration="30.05" maxIntervalHaltingDuration="153.00" intervalHaltingDurationSum="3606.00" startedHalts="153.00" meanVehicleNumber="0.59" maxVehicleNumber="4" />
   <interval begin="0.00" end="10257.00" id="27_15" sampledSeconds="4026.26" nVehEntered="169" nVehLeft="169" nVehSeen="169" meanSpeed="0.61" meanTimeLoss="22.78" meanOccupancy="7.14" maxOccupancy="74.95" meanMaxJamLengthInVehicles="0.34" meanMaxJamLengthInMeters="1.56" maxJamLengthInVehicles="4" maxJamLengthInMeters="19.62" jamLengthInVehiclesSum="3488" jamLengthInMetersSum="16004.13" meanHaltingDuration="33.56" maxHaltingDuration="148.00" haltingDurationSum="2953.00" meanIntervalHaltingDuration="33.56" maxIntervalHaltingDuration="148.00" intervalHaltingDurationSum="2953.00" startedHalts="101.00" meanVehicleNumber="0.40" maxVehicleNumber="4" />
   <interval begin="0.00" end="10257.00" id="27_16" sampledSeconds="797.39" nVehEntered="340" nVehLeft="340" nVehSeen="340" meanSpeed="10.25" meanTimeLoss="0.57" meanOccupancy="1.50" maxOccupancy="60.00" meanMaxJamLengthInVehicles="0.00" meanMaxJamLengthInMeters="0.02" maxJamLengthInVehicles="2" maxJamLengthInMeters="10.36" jamLengthInVehiclesSum="36" jamLengthInMetersSum="173.83" meanHaltingDuration="13.00" maxHaltingDuration="18.00" haltingDurationSum="39.00" meanIntervalHaltingDuration="13.00" maxIntervalHaltingDuration="18.00" intervalHaltingDurationSum="39.00" startedHalts="3.00" meanVehicleNumber="0.11" maxVehicleNumber="3" />
   <interval begin="0.00" end="10257.00" id="27_17" sampledSeconds="613.46" nVehEntered="305" nVehLeft="305" nVehSeen="305" meanSpeed="11.47" meanTimeLoss="0.36" meanOccupancy="1.13" maxOccupancy="50.00" meanMaxJamLengthInVehicles="0.00" meanMaxJamLengthInMeters="0.00" maxJamLengthInVehicles="0" maxJamLengthInMeters="0.00" jamLengthInVehiclesSum="0" jamLengthInMetersSum="0.00" meanHaltingDuration="0.00" maxHaltingDuration="0.00" haltingDurationSum="0.00" meanIntervalHaltingDuration="0.00" maxIntervalHaltingDuration="0.00" intervalHaltingDurationSum="0.00" startedHalts="0.00" meanVehicleNumber="0.09" maxVehicleNumber="2" />
   <interval begin="0.00" end="10257.00" id="27_18" sampledSeconds="198.55" nVehEntered="106" nVehLeft="106" nVehSeen="106" meanSpeed="11.48" meanTimeLoss="0.32" meanOccupancy="0.37" maxOccupancy="29.08" meanMaxJamLengthInVehicles="0.00" meanMaxJamLengthInMeters="0.00" maxJamLengthInVehicles="0" maxJamLengthInMeters="0.00" jamLengthInVehiclesSum="0" jamLengthInMetersSum="0.00" meanHaltingDuration="0.00" maxHaltingDuration="0.00" haltingDurationSum="0.00" meanIntervalHaltingDuration="0.00" maxIntervalHaltingDuration="0.00" intervalHaltingDurationSum="0.00" startedHalts="0.00" meanVehicleNumber="0.03" maxVehicleNumber="2" />
   <interval begin="0.00" end="10257.00" id="27_19" sampledSeconds="1407.13" nVehEntered="347" nVehLeft="347" nVehSeen="347" meanSpeed="6.24" meanTimeLoss="2.21" meanOccupancy="3.08" maxOccupancy="79.64" meanMaxJamLengthInVehicles="0.05" meanMaxJamLengthInMeters="0.33" maxJamLengthInVehicles="4" maxJamLengthInMeters="20.00" jamLengthInVehiclesSum="556" jamLengthInMetersSum="3390.81" meanHaltingDuration="33.20" maxHaltingDuration="118.00" haltingDurationSum="332.00" meanIntervalHaltingDuration="33.20" maxIntervalHaltingDuration="118.00" intervalHaltingDurationSum="332.00" startedHalts="14.00" meanVehicleNumber="0.17" maxVehicleNumber="4" />
   <interval begin="0.00" end="10257.00" id="27_20" sampledSeconds="35036.50" nVehEntered="473" nVehLeft="473" nVehSeen="473" meanSpeed="0.95" meanTimeLoss="68.67" meanOccupancy="21.06" maxOccupancy="78.66" meanMaxJamLengthInVehicles="2.72" meanMaxJamLengthInMeters="16.94" maxJamLengthInVehicles="14" maxJamLengthInMeters="79.52" jamLengthInVehiclesSum="28186" jamLengthInMetersSum="175140.95" meanHaltingDuration="35.28" maxHaltingDuration="147.00" haltingDurationSum="28226.00" meanIntervalHaltingDuration="35.28" maxIntervalHaltingDuration="147.00" intervalHaltingDurationSum="28226.00" startedHalts="844.00" meanVehicleNumber="3.46" maxVehicleNumber="14" />
   <interval begin="0.00" end="10257.00" id="27_21" sampledSeconds="29517.43" nVehEntered="691" nVehLeft="691" nVehSeen="691" meanSpeed="1.19" meanTimeLoss="39.06" meanOccupancy="17.43" maxOccupancy="79.23" meanMaxJamLengthInVehicles="2.28" meanMaxJamLengthInMeters="13.88" maxJamLengthInVehicles="13" maxJamLengthInMeters="79.52" jamLengthInVehiclesSum="23734" jamLengthInMetersSum="144212.32" meanHaltingDuration="34.38" maxHaltingDuration="153.00" haltingDurationSum="23346.00" meanIntervalHaltingDuration="34.38" maxIntervalHaltingDuration="153.00" intervalHaltingDurationSum="23346.00" startedHalts="763.00" meanVehicleNumber="2.92" maxVehicleNumber="13" />
   <interval begin="0.00" end="10257.00" id="27_22" sampledSeconds="25872.59" nVehEntered="337" nVehLeft="337" nVehSeen="337" meanSpeed="0.70" meanTimeLoss="72.88" meanOccupancy="15.17" maxOccupancy="78.60" meanMaxJamLengthInVehicles="2.13" meanMaxJamLengthInMeters="12.88" maxJamLengthInVehicles="13" maxJamLengthInMeters="79.14" jamLengthInVehiclesSum="22010" jamLengthInMetersSum="133137.33" meanHaltingDuration="38.19" maxHaltingDuration="152.00" haltingDurationSum="21959.00" meanIntervalHaltingDuration="38.19" maxIntervalHaltingDuration="152.00" intervalHaltingDurationSum="21959.00" startedHalts="593.00" meanVehicleNumber="2.54" maxVehicleNumber="13" />
   <interval begin="0.00" end="10257.00" id="27_23" sampledSeconds="0.00" nVehEntered="0" nVehLeft="0" nVehSeen="0" meanSpeed="-1.00" meanTimeLoss="-1.00" meanOccupancy="0.00" maxOccupancy="0.00" meanMaxJamLengthInVehicles="0.00" meanMaxJamLengthInMeters="0.00" maxJamLengthInVehicles="0" maxJamLengthInMeters="0.00" jamLengthInVehiclesSum="0" jamLengthInMetersSum="0.00" meanHaltingDuration="0.00" maxHaltingDuration="0.00" haltingDurationSum="0.00" meanIntervalHaltingDuration="0.00" maxIntervalHaltingDuration="0.00" intervalHaltingDurationSum="0.00" startedHalts="0.00" meanVehicleNumber="0.00" maxVehicleNumber="0" />
   <interval begin="0.00" end="10257.00" id="27_24" sampledSeconds="375.77" nVehEntered="23" nVehLeft="23" nVehSeen="23" meanSpeed="1.37" meanTimeLoss="14.73" meanOccupancy="3.35" maxOccupancy="100.00" meanMaxJamLengthInVehicles="0.03" meanMaxJamLengthInMeters="0.28" maxJamLengthInVehicles="1" maxJamLengthInMeters="10.38" jamLengthInVehiclesSum="277" jamLengthInMetersSum="2873.45" meanHaltingDuration="19.47" maxHaltingDuration="63.00" haltingDurationSum="292.00" meanIntervalHaltingDuration="19.47" maxIntervalHaltingDuration="63.00" intervalHaltingDurationSum="292.00" startedHalts="15.00" meanVehicleNumber="0.04" maxVehicleNumber="1" />
   <interval begin="0.00" end="10257.00" id="27_25" sampledSeconds="0.00" nVehEntered="0" nVehLeft="0" nVehSeen="0" meanSpeed="-1.00" meanTimeLoss="-1.00" meanOccupancy="0.00" maxOccupancy="0.00" meanMaxJamLengthInVehicles="0.00" meanMaxJamLengthInMeters="0.00" maxJamLengthInVehicles="0" maxJamLengthInMeters="0.00" jamLengthInVehiclesSum="0" jamLengthInMetersSum="0.00" meanHaltingDuration="0.00" maxHaltingDuration="0.00" haltingDurationSum="0.00" meanIntervalHaltingDuration="0.00" maxIntervalHaltingDuration="0.00" intervalHaltingDurationSum="0.00" startedHalts="0.00" meanVehicleNumber="0.00" maxVehicleNumber="0" />
   <interval begin="0.00" end="10257.00" id="27_26" sampledSeconds="1126.68" nVehEntered="24" nVehLeft="24" nVehSeen="24" meanSpeed="3.57" meanTimeLoss="34.89" meanOccupancy="0.80" maxOccupancy="23.05" meanMaxJamLengthInVehicles="0.06" meanMaxJamLengthInMeters="0.74" maxJamLengthInVehicles="3" maxJamLengthInMeters="42.07" jamLengthInVehiclesSum="604" jamLengthInMetersSum="7571.85" meanHaltingDuration="18.76" maxHaltingDuration="23.00" haltingDurationSum="638.00" meanIntervalHaltingDuration="18.76" maxIntervalHaltingDuration="23.00" intervalHaltingDurationSum="638.00" startedHalts="34.00" meanVehicleNumber="0.11" maxVehicleNumber="3" />
   <interval begin="0.00" end="10257.00" id="27_27" sampledSeconds="0.00" nVehEntered="0" nVehLeft="0" nVehSeen="0" meanSpeed="-1.00" meanTimeLoss="-1.00" meanOccupancy="0.00" maxOccupancy="0.00" meanMaxJamLengthInVehicles="0.00" meanMaxJamLengthInMeters="0.00" maxJamLengthInVehicles="0" maxJamLengthInMeters="0.00" jamLengthInVehiclesSum="0" jamLengthInMetersSum="0.00" meanHaltingDuration="0.00" maxHaltingDuration="0.00" haltingDurationSum="0.00" meanIntervalHaltingDuration="0.00" maxIntervalHaltingDuration="0.00" intervalHaltingDurationSum="0.00" startedHalts="0.00" meanVehicleNumber="0.00" maxVehicleNumber="0" />