<?xml version="1.0" encoding="UTF-8"?>

<!-- generated on 2025-10-20 16:21:57 by 
<Configuration xmlns:xsi="http://www.w3.org/2001/XMLSchema-instance" xsi:noNamespaceSchemaLocation="http://sumo.dlr.de/xsd/Configuration.xsd">

    <input>
        <net-file value="/home/julesbompard/Documents/Projets/sumo-experiments/src/sumo_experiments/preset_networks/bologna/acosta/acosta_buslanes.net.xml"/>
        <route-files value="/home/julesbompard/Documents/Projets/sumo-experiments/src/sumo_experiments/preset_networks/bologna/acosta/acosta_46454.rou.xml,/home/julesbompard/Documents/Projets/sumo-experiments/src/sumo_experiments/preset_networks/bologna/acosta/acosta_busses.rou.xml"/>
        <additional-files value="/home/julesbompard/Documents/Projets/sumo-experiments/src/sumo_experiments/preset_networks/bologna/acosta/acosta_tls.add.xml,/home/julesbompard/Documents/Projets/sumo-experiments/src/sumo_experiments/preset_networks/bologna/acosta/acosta_vtypes.add.xml,/home/julesbompard/Documents/Projets/sumo-experiments/src/sumo_experiments/preset_networks/bologna/acosta/acosta_detectors.add.xml,/home/julesbompard/Documents/Projets/sumo-experiments/src/sumo_experiments/preset_networks/bologna/acosta/acosta_bus_stops.add.xml"/>
    </input>

    <output>
        <tripinfo-output value="/home/julesbompard/Documents/Projets/sumo-experiments/src/sumo_experiments/preset_networks/bologna/acosta/tripinfos.xml"/>
    </output>

    <processing>
        <time-to-teleport value="150"/>
    </processing>

    <report>
        <no-warnings value="true"/>
        <log value="/home/julesbompard/Documents/Projets/sumo-experiments/src/sumo_experiments/preset_networks/bologna/acosta/sumo_log.txt"/>
        <no-step-log value="true"/>
    </report>

    <gui_only>
        <gui-settings-file value="/home/julesbompard/Documents/Projets/sumo-experiments/src/sumo_experiments/preset_networks/bologna/acosta/settings.gui.xml"/>
    </gui_only>

</Configuration>
-->

<detector xmlns:xsi="http://www.w3.org/2001/XMLSchema-instance" xsi:noNamespaceSchemaLocation="http://sumo.dlr.de/xsd/det_e2_file.xsd">
   <interval begin="0.00" end="9296.00" id="34_1" sampledSeconds="1489.83" nVehEntered="226" nVehLeft="226" nVehSeen="226" meanSpeed="3.77" meanTimeLoss="4.64" meanOccupancy="3.52" maxOccupancy="76.72" meanMaxJamLengthInVehicles="0.07" meanMaxJamLengthInMeters="0.36" maxJamLengthInVehicles="4" maxJamLengthInMeters="19.98" jamLengthInVehiclesSum="633" jamLengthInMetersSum="3318.68" meanHaltingDuration="7.66" maxHaltingDuration="19.00" haltingDurationSum="728.00" meanIntervalHaltingDuration="7.66" maxIntervalHaltingDuration="19.00" intervalHaltingDurationSum="728.00" startedHalts="95.00" meanVehicleNumber="0.18" maxVehicleNumber="4" />
   <interval begin="0.00" end="9296.00" id="34_2" sampledSeconds="2588.00" nVehEntered="284" nVehLeft="284" nVehSeen="284" meanSpeed="2.72" meanTimeLoss="6.79" meanOccupancy="5.95" maxOccupancy="82.22" meanMaxJamLengthInVehicles="0.13" meanMaxJamLengthInMeters="0.69" maxJamLengthInVehicles="4" maxJamLengthInMeters="19.54" jamLengthInVehiclesSum="1249" jamLengthInMetersSum="6457.50" meanHaltingDuration="9.01" maxHaltingDuration="33.00" haltingDurationSum="1405.00" meanIntervalHaltingDuration="9.01" maxIntervalHaltingDuration="33.00" intervalHaltingDurationSum="1405.00" startedHalts="156.00" meanVehicleNumber="0.31" maxVehicleNumber="4" />
   <interval begin="0.00" end="9296.00" id="34_3" sampledSeconds="14008.19" nVehEntered="453" nVehLeft="453" nVehSeen="453" meanSpeed="0.74" meanTimeLoss="29.18" meanOccupancy="33.59" maxOccupancy="95.00" meanMaxJamLengthInVehicles="1.26" meanMaxJamLengthInMeters="6.81" maxJamLengthInVehicles="4" maxJamLengthInMeters="20.00" jamLengthInVehiclesSum="11724" jamLengthInMetersSum="63315.42" meanHaltingDuration="32.05" maxHaltingDuration="152.00" haltingDurationSum="11730.00" meanIntervalHaltingDuration="32.05" maxIntervalHaltingDuration="152.00" intervalHaltingDurationSum="11730.00" startedHalts="392.00" meanVehicleNumber="1.55" maxVehicleNumber="4" />
   <interval begin="0.00" end="9296.00" id="34_4" sampledSeconds="10757.32" nVehEntered="410" nVehLeft="410" nVehSeen="410" meanSpeed="0.77" meanTimeLoss="24.75" meanOccupancy="25.47" maxOccupancy="81.18" meanMaxJamLengthInVehicles="0.96" meanMaxJamLengthInMeters="5.03" maxJamLengthInVehicles="4" maxJamLengthInMeters="20.00" jamLengthInVehiclesSum="8912" jamLengthInMetersSum="46730.68" meanHaltingDuration="30.49" maxHaltingDuration="132.00" haltingDurationSum="8903.00" meanIntervalHaltingDuration="30.49" maxIntervalHaltingDuration="132.00" intervalHaltingDurationSum="8903.00" startedHalts="332.00" meanVehicleNumber="1.20" maxVehicleNumber="4" />
   <interval begin="0.00" end="9296.00" id="34_5" sampledSeconds="8783.94" nVehEntered="272" nVehLeft="272" nVehSeen="272" meanSpeed="0.71" meanTimeLoss="30.68" meanOccupancy="20.69" maxOccupancy="79.38" meanMaxJamLengthInVehicles="0.79" meanMaxJamLengthInMeters="4.15" maxJamLengthInVehicles="4" maxJamLengthInMeters="20.00" jamLengthInVehiclesSum="7332" jamLengthInMetersSum="38540.66" meanHaltingDuration="29.41" maxHaltingDuration="132.00" haltingDurationSum="7589.00" meanIntervalHaltingDuration="29.41" maxIntervalHaltingDuration="132.00" intervalHaltingDurationSum="7589.00" startedHalts="259.00" meanVehicleNumber="0.97" maxVehicleNumber="4" />
   <interval begin="0.00" end="9296.00" id="34_6" sampledSeconds="596.40" nVehEntered="284" nVehLeft="284" nVehSeen="284" meanSpeed="11.82" meanTimeLoss="0.28" meanOccupancy="1.25" maxOccupancy="32.40" meanMaxJamLengthInVehicles="0.00" meanMaxJamLengthInMeters="0.00" maxJamLengthInVehicles="0" maxJamLengthInMeters="0.00" jamLengthInVehiclesSum="0" jamLengthInMetersSum="0.00" meanHaltingDuration="0.00" maxHaltingDuration="0.00" haltingDurationSum="0.00" meanIntervalHaltingDuration="0.00" maxIntervalHaltingDuration="0.00" intervalHaltingDurationSum="0.00" startedHalts="0.00" meanVehicleNumber="0.10" maxVehicleNumber="2" />
   <interval begin="0.00" end="9296.00" id="34_7" sampledSeconds="1398.79" nVehEntered="621" nVehLeft="621" nVehSeen="621" meanSpeed="10.81" meanTimeLoss="0.47" meanOccupancy="2.94" maxOccupancy="69.70" meanMaxJamLengthInVehicles="0.00" meanMaxJamLengthInMeters="0.00" maxJamLengthInVehicles="2" maxJamLengthInMeters="12.64" jamLengthInVehiclesSum="7" jamLengthInMetersSum="28.92" meanHaltingDuration="2.00" maxHaltingDuration="3.00" haltingDurationSum="14.00" meanIntervalHaltingDuration="2.00" maxIntervalHaltingDuration="3.00" intervalHaltingDurationSum="14.00" startedHalts="7.00" meanVehicleNumber="0.21" maxVehicleNumber="4" />
   <interval begin="0.00" end="9296.00" id="34_8" sampledSeconds="769.61" nVehEntered="414" nVehLeft="414" nVehSeen="414" meanSpeed="11.84" meanTimeLoss="0.26" meanOccupancy="1.65" maxOccupancy="47.50" meanMaxJamLengthInVehicles="0.00" meanMaxJamLengthInMeters="0.00" maxJamLengthInVehicles="1" maxJamLengthInMeters="0.00" jamLengthInVehiclesSum="1" jamLengthInMetersSum="0.00" meanHaltingDuration="1.00" maxHaltingDuration="1.00" haltingDurationSum="2.00" meanIntervalHaltingDuration="1.00" maxIntervalHaltingDuration="1.00" intervalHaltingDurationSum="2.00" startedHalts="4.00" meanVehicleNumber="0.12" maxVehicleNumber="2" />
   <interval begin="0.00" end="9296.00" id="34_9" sampledSeconds="52.75" nVehEntered="62" nVehLeft="62" nVehSeen="62" meanSpeed="11.42" meanTimeLoss="0.19" meanOccupancy="0.04" maxOccupancy="25.00" meanMaxJamLengthInVehicles="0.00" meanMaxJamLengthInMeters="0.00" maxJamLengthInVehicles="0" maxJamLengthInMeters="0.00" jamLengthInVehiclesSum="0" jamLengthInMetersSum="0.00" meanHaltingDuration="0.00" maxHaltingDuration="0.00" haltingDurationSum="0.00" meanIntervalHaltingDuration="0.00" maxIntervalHaltingDuration="0.00" intervalHaltingDurationSum="0.00" startedHalts="0.00" meanVehicleNumber="0.01" maxVehicleNumber="1" />
   <interval begin="0.00" end="9296.00" id="34_10" sampledSeconds="1489.18" nVehEntered="226" nVehLeft="226" nVehSeen="226" meanSpeed="3.77" meanTimeLoss="4.64" meanOccupancy="3.53" maxOccupancy="76.80" meanMaxJamLengthInVehicles="0.07" meanMaxJamLengthInMeters="0.36" maxJamLengthInVehicles="4" maxJamLengthInMeters="19.98" jamLengthInVehiclesSum="633" jamLengthInMetersSum="3318.66" meanHaltingDuration="7.66" maxHaltingDuration="19.00" haltingDurationSum="728.00" meanIntervalHaltingDuration="7.66" maxIntervalHaltingDuration="19.00" intervalHaltingDurationSum="728.00" startedHalts="95.00" meanVehicleNumber="0.18" maxVehicleNumber="4" />
   <interval begin="0.00" end="9296.00" id="34_11" sampledSeconds="3177.01" nVehEntered="226" nVehLeft="226" nVehSeen="226" meanSpeed="13.15" meanTimeLoss="0.75" meanOccupancy="0.90" maxOccupancy="11.25" meanMaxJamLengthInVehicles="0.00" meanMaxJamLengthInMeters="0.00" maxJamLengthInVehicles="1" maxJamLengthInMeters="0.60" jamLengthInVehiclesSum="3" jamLengthInMetersSum="0.62" meanHaltingDuration="3.00" maxHaltingDuration="3.00" haltingDurationSum="3.00" meanIntervalHaltingDuration="3.00" maxIntervalHaltingDuration="3.00" intervalHaltingDurationSum="3.00" startedHalts="2.00" meanVehicleNumber="0.37" maxVehicleNumber="5" />
   <interval begin="0.00" end="9296.00" id="34_12" sampledSeconds="5187.09" nVehEntered="284" nVehLeft="284" nVehSeen="284" meanSpeed="7.25" meanTimeLoss="8.08" meanOccupancy="2.03" maxOccupancy="27.44" meanMaxJamLengthInVehicles="0.14" meanMaxJamLengthInMeters="0.76" maxJamLengthInVehicles="6" maxJamLengthInMeters="36.18" jamLengthInVehiclesSum="1284" jamLengthInMetersSum="7036.63" meanHaltingDuration="8.88" maxHaltingDuration="33.00" haltingDurationSum="1447.00" meanIntervalHaltingDuration="8.88" maxIntervalHaltingDuration="33.00" intervalHaltingDurationSum="1447.00" startedHalts="163.00" meanVehicleNumber="0.59" maxVehicleNumber="7" />
   <interval begin="0.00" end="9296.00" id="34_13" sampledSeconds="20050.02" nVehEntered="629" nVehLeft="629" nVehSeen="629" meanSpeed="2.20" meanTimeLoss="26.69" meanOccupancy="13.59" maxOccupancy="63.25" meanMaxJamLengthInVehicles="1.54" meanMaxJamLengthInMeters="9.42" maxJamLengthInVehicles="9" maxJamLengthInMeters="55.80" jamLengthInVehiclesSum="14325" jamLengthInMetersSum="87602.72" meanHaltingDuration="32.60" maxHaltingDuration="152.00" haltingDurationSum="14375.00" meanIntervalHaltingDuration="32.60" maxIntervalHaltingDuration="152.00" intervalHaltingDurationSum="14375.00" startedHalts="491.00" meanVehicleNumber="2.21" maxVehicleNumber="10" />
   <interval begin="0.00" end="9296.00" id="34_14" sampledSeconds="14981.51" nVehEntered="608" nVehLeft="608" nVehSeen="608" meanSpeed="1.97" meanTimeLoss="21.11" meanOccupancy="9.68" maxOccupancy="53.54" meanMaxJamLengthInVehicles="1.19" meanMaxJamLengthInMeters="6.90" maxJamLengthInVehicles="9" maxJamLengthInMeters="54.54" jamLengthInVehiclesSum="11051" jamLengthInMetersSum="64145.24" meanHaltingDuration="31.26" maxHaltingDuration="133.00" haltingDurationSum="11096.00" meanIntervalHaltingDuration="31.26" maxIntervalHaltingDuration="133.00" intervalHaltingDurationSum="11096.00" startedHalts="411.00" meanVehicleNumber="1.65" maxVehicleNumber="9" />
   <interval begin="0.00" end="9296.00" id="34_15" sampledSeconds="11132.23" nVehEntered="272" nVehLeft="272" nVehSeen="272" meanSpeed="0.94" meanTimeLoss="38.23" meanOccupancy="7.11" maxOccupancy="49.13" meanMaxJamLengthInVehicles="0.98" meanMaxJamLengthInMeters="5.64" maxJamLengthInVehicles="8" maxJamLengthInMeters="49.13" jamLengthInVehiclesSum="9121" jamLengthInMetersSum="52399.91" meanHaltingDuration="30.90" maxHaltingDuration="132.00" haltingDurationSum="9425.00" meanIntervalHaltingDuration="30.90" maxIntervalHaltingDuration="132.00" intervalHaltingDurationSum="9425.00" startedHalts="306.00" meanVehicleNumber="1.21" maxVehicleNumber="8" />
   <interval begin="0.00" end="9296.00" id="27_1" sampledSeconds="18323.31" nVehEntered="416" nVehLeft="416" nVehSeen="416" meanSpeed="0.55" meanTimeLoss="41.93" meanOccupancy="38.78" maxOccupancy="85.08" meanMaxJamLengthInVehicles="1.69" meanMaxJamLengthInMeters="8.37" maxJamLengthInVehicles="4" maxJamLengthInMeters="20.00" jamLengthInVehiclesSum="15701" jamLengthInMetersSum="77823.91" meanHaltingDuration="36.10" maxHaltingDuration="151.00" haltingDurationSum="15666.00" meanIntervalHaltingDuration="36.10" maxIntervalHaltingDuration="151.00" intervalHaltingDurationSum="15666.00" startedHalts="441.00" meanVehicleNumber="2.02" maxVehicleNumber="4" />
   <interval begin="0.00" end="9296.00" id="27_2" sampledSeconds="16632.62" nVehEntered="385" nVehLeft="385" nVehSeen="385" meanSpeed="0.54" meanTimeLoss="41.50" meanOccupancy="35.03" maxOccupancy="80.08" meanMaxJamLengthInVehicles="1.55" meanMaxJamLengthInMeters="7.61" maxJamLengthInVehicles="4" maxJamLengthInMeters="20.00" jamLengthInVehiclesSum="14374" jamLengthInMetersSum="70713.70" meanHaltingDuration="34.86" maxHaltingDuration="152.00" haltingDurationSum="14468.00" meanIntervalHaltingDuration="34.86" maxIntervalHaltingDuration="152.00" intervalHaltingDurationSum="14468.00" startedHalts="426.00" meanVehicleNumber="1.83" maxVehicleNumber="4" />
   <interval begin="0.00" end="9296.00" id="27_3" sampledSeconds="16232.07" nVehEntered="350" nVehLeft="350" nVehSeen="350" meanSpeed="0.52" meanTimeLoss="44.61" meanOccupancy="34.19" maxOccupancy="80.08" meanMaxJamLengthInVehicles="1.52" meanMaxJamLengthInMeters="7.48" maxJamLengthInVehicles="4" maxJamLengthInMeters="20.00" jamLengthInVehiclesSum="14121" jamLengthInMetersSum="69508.69" meanHaltingDuration="37.47" maxHaltingDuration="153.00" haltingDurationSum="14351.00" meanIntervalHaltingDuration="37.47" maxIntervalHaltingDuration="153.00" intervalHaltingDurationSum="14351.00" startedHalts="384.00" meanVehicleNumber="1.78" maxVehicleNumber="4" />
   <interval begin="0.00" end="9296.00" id="27_4" sampledSeconds="0.00" nVehEntered="0" nVehLeft="0" nVehSeen="0" meanSpeed="-1.00" meanTimeLoss="-1.00" meanOccupancy="0.00" maxOccupancy="0.00" meanMaxJamLengthInVehicles="0.00" meanMaxJamLengthInMeters="0.00" maxJamLengthInVehicles="0" maxJamLengthInMeters="0.00" jamLengthInVehiclesSum="0" jamLengthInMetersSum="0.00" meanHaltingDuration="0.00" maxHaltingDuration="0.00" haltingDurationSum="0.00" meanIntervalHaltingDuration="0.00" maxIntervalHaltingDuration="0.00" intervalHaltingDurationSum="0.00" startedHalts="0.00" meanVehicleNumber="0.00" maxVehicleNumber="0" />
   <interval begin="0.00" end="9296.00" id="27_5" sampledSeconds="572.63" nVehEntered="24" nVehLeft="24" nVehSeen="24" meanSpeed="0.94" meanTimeLoss="22.25" meanOccupancy="5.80" maxOccupancy="100.00" meanMaxJamLengthInVehicles="0.05" meanMaxJamLengthInMeters="0.52" maxJamLengthInVehicles="1" maxJamLengthInMeters="10.38" jamLengthInVehiclesSum="469" jamLengthInMetersSum="4866.53" meanHaltingDuration="32.27" maxHaltingDuration="132.00" haltingDurationSum="484.00" meanIntervalHaltingDuration="32.27" maxIntervalHaltingDuration="132.00" intervalHaltingDurationSum="484.00" startedHalts="15.00" meanVehicleNumber="0.06" maxVehicleNumber="1" />
   <interval begin="0.00" end="9296.00" id="27_6" sampledSeconds="0.00" nVehEntered="0" nVehLeft="0" nVehSeen="0" meanSpeed="-1.00" meanTimeLoss="-1.00" meanOccupancy="0.00" maxOccupancy="0.00" meanMaxJamLengthInVehicles="0.00" meanMaxJamLengthInMeters="0.00" maxJamLengthInVehicles="0" maxJamLengthInMeters="0.00" jamLengthInVehiclesSum="0" jamLengthInMetersSum="0.00" meanHaltingDuration="0.00" maxHaltingDuration="0.00" haltingDurationSum="0.00" meanIntervalHaltingDuration="0.00" maxIntervalHaltingDuration="0.00" intervalHaltingDurationSum="0.00" startedHalts="0.00" meanVehicleNumber="0.00" maxVehicleNumber="0" />
   <interval begin="0.00" end="9296.00" id="27_7" sampledSeconds="13746.15" nVehEntered="430" nVehLeft="430" nVehSeen="430" meanSpeed="0.75" meanTimeLoss="30.22" meanOccupancy="30.57" maxOccupancy="85.00" meanMaxJamLengthInVehicles="1.23" meanMaxJamLengthInMeters="6.26" maxJamLengthInVehicles="4" maxJamLengthInMeters="20.00" jamLengthInVehiclesSum="11479" jamLengthInMetersSum="58192.26" meanHaltingDuration="31.39" maxHaltingDuration="157.00" haltingDurationSum="11834.00" meanIntervalHaltingDuration="31.39" maxIntervalHaltingDuration="157.00" intervalHaltingDurationSum="11834.00" startedHalts="382.00" meanVehicleNumber="1.53" maxVehicleNumber="4" />
   <interval begin="0.00" end="9296.00" id="27_8" sampledSeconds="13055.08" nVehEntered="399" nVehLeft="399" nVehSeen="399" meanSpeed="0.73" meanTimeLoss="30.99" meanOccupancy="28.69" maxOccupancy="78.86" meanMaxJamLengthInVehicles="1.18" meanMaxJamLengthInMeters="5.96" maxJamLengthInVehicles="4" maxJamLengthInMeters="20.00" jamLengthInVehiclesSum="10952" jamLengthInMetersSum="55451.85" meanHaltingDuration="32.10" maxHaltingDuration="151.00" haltingDurationSum="11139.00" meanIntervalHaltingDuration="32.10" maxIntervalHaltingDuration="151.00" intervalHaltingDurationSum="11139.00" startedHalts="351.00" meanVehicleNumber="1.45" maxVehicleNumber="4" />
   <interval begin="0.00" end="9296.00" id="27_9" sampledSeconds="1846.57" nVehEntered="49" nVehLeft="49" nVehSeen="49" meanSpeed="0.61" meanTimeLoss="36.02" meanOccupancy="4.59" maxOccupancy="75.48" meanMaxJamLengthInVehicles="0.17" meanMaxJamLengthInMeters="0.89" maxJamLengthInVehicles="4" maxJamLengthInMeters="19.10" jamLengthInVehiclesSum="1563" jamLengthInMetersSum="8288.37" meanHaltingDuration="26.28" maxHaltingDuration="118.00" haltingDurationSum="1419.00" meanIntervalHaltingDuration="26.28" maxIntervalHaltingDuration="118.00" intervalHaltingDurationSum="1419.00" startedHalts="60.00" meanVehicleNumber="0.20" maxVehicleNumber="4" />
   <interval begin="0.00" end="9296.00" id="27_10" sampledSeconds="5590.72" nVehEntered="198" nVehLeft="198" nVehSeen="198" meanSpeed="0.88" meanTimeLoss="26.18" meanOccupancy="13.28" maxOccupancy="79.99" meanMaxJamLengthInVehicles="0.48" meanMaxJamLengthInMeters="2.56" maxJamLengthInVehicles="4" maxJamLengthInMeters="20.01" jamLengthInVehiclesSum="4505" jamLengthInMetersSum="23776.99" meanHaltingDuration="26.31" maxHaltingDuration="140.00" haltingDurationSum="4526.00" meanIntervalHaltingDuration="26.31" maxIntervalHaltingDuration="140.00" intervalHaltingDurationSum="4526.00" startedHalts="173.00" meanVehicleNumber="0.62" maxVehicleNumber="4" />
   <interval begin="0.00" end="9296.00" id="27_11" sampledSeconds="976.93" nVehEntered="43" nVehLeft="43" nVehSeen="43" meanSpeed="1.28" meanTimeLoss="20.60" meanOccupancy="4.42" maxOccupancy="84.96" meanMaxJamLengthInVehicles="0.08" meanMaxJamLengthInMeters="0.78" maxJamLengthInVehicles="2" maxJamLengthInMeters="20.01" jamLengthInVehiclesSum="763" jamLengthInMetersSum="7219.84" meanHaltingDuration="22.89" maxHaltingDuration="124.00" haltingDurationSum="641.00" meanIntervalHaltingDuration="22.89" maxIntervalHaltingDuration="124.00" intervalHaltingDurationSum="641.00" startedHalts="29.00" meanVehicleNumber="0.11" maxVehicleNumber="2" />
   <interval begin="0.00" end="9296.00" id="27_12" sampledSeconds="6248.77" nVehEntered="150" nVehLeft="150" nVehSeen="150" meanSpeed="0.59" meanTimeLoss="39.74" meanOccupancy="14.03" maxOccupancy="79.99" meanMaxJamLengthInVehicles="0.57" meanMaxJamLengthInMeters="2.92" maxJamLengthInVehicles="4" maxJamLengthInMeters="19.91" jamLengthInVehiclesSum="5326" jamLengthInMetersSum="27097.92" meanHaltingDuration="30.53" maxHaltingDuration="150.00" haltingDurationSum="5343.00" meanIntervalHaltingDuration="30.53" maxIntervalHaltingDuration="150.00" intervalHaltingDurationSum="5343.00" startedHalts="183.00" meanVehicleNumber="0.69" maxVehicleNumber="4" />
   <interval begin="0.00" end="9296.00" id="27_13" sampledSeconds="12206.76" nVehEntered="508" nVehLeft="508" nVehSeen="508" meanSpeed="1.01" meanTimeLoss="22.24" meanOccupancy="27.36" maxOccupancy="83.90" meanMaxJamLengthInVehicles="1.07" meanMaxJamLengthInMeters="5.50" maxJamLengthInVehicles="4" maxJamLengthInMeters="20.00" jamLengthInVehiclesSum="9916" jamLengthInMetersSum="51139.93" meanHaltingDuration="34.16" maxHaltingDuration="152.00" haltingDurationSum="9532.00" meanIntervalHaltingDuration="34.16" maxIntervalHaltingDuration="152.00" intervalHaltingDurationSum="9532.00" startedHalts="319.00" meanVehicleNumber="1.37" maxVehicleNumber="4" />
   <interval begin="0.00" end="9296.00" id="27_14" sampledSeconds="11514.24" nVehEntered="638" nVehLeft="638" nVehSeen="638" meanSpeed="0.96" meanTimeLoss="16.80" meanOccupancy="24.54" maxOccupancy="79.98" meanMaxJamLengthInVehicles="1.01" meanMaxJamLengthInMeters="4.95" maxJamLengthInVehicles="4" maxJamLengthInMeters="20.00" jamLengthInVehiclesSum="9422" jamLengthInMetersSum="46036.42" meanHaltingDuration="32.66" maxHaltingDuration="148.00" haltingDurationSum="8198.00" meanIntervalHaltingDuration="32.66" maxIntervalHaltingDuration="148.00" intervalHaltingDurationSum="8198.00" startedHalts="338.00" meanVehicleNumber="1.29" maxVehicleNumber="4" />
   <interval begin="0.00" end="9296.00" id="27_15" sampledSeconds="8442.00" nVehEntered="263" nVehLeft="263" nVehSeen="263" meanSpeed="0.51" meanTimeLoss="30.91" meanOccupancy="17.72" maxOccupancy="79.95" meanMaxJamLengthInVehicles="0.79" meanMaxJamLengthInMeters="3.81" maxJamLengthInVehicles="4" maxJamLengthInMeters="19.54" jamLengthInVehiclesSum="7369" jamLengthInMetersSum="35435.99" meanHaltingDuration="36.28" maxHaltingDuration="190.00" haltingDurationSum="6639.00" meanIntervalHaltingDuration="36.28" maxIntervalHaltingDuration="190.00" intervalHaltingDurationSum="6639.00" startedHalts="217.00" meanVehicleNumber="0.92" maxVehicleNumber="4" />
   <interval begin="0.00" end="9296.00" id="27_16" sampledSeconds="3278.60" nVehEntered="405" nVehLeft="405" nVehSeen="405" meanSpeed="3.01" meanTimeLoss="6.29" meanOccupancy="7.10" maxOccupancy="79.98" meanMaxJamLengthInVehicles="0.22" meanMaxJamLengthInMeters="1.12" maxJamLengthInVehicles="4" maxJamLengthInMeters="20.00" jamLengthInVehiclesSum="2073" jamLengthInMetersSum="10446.82" meanHaltingDuration="19.99" maxHaltingDuration="84.00" haltingDurationSum="1979.00" meanIntervalHaltingDuration="19.99" maxIntervalHaltingDuration="84.00" intervalHaltingDurationSum="1979.00" startedHalts="119.00" meanVehicleNumber="0.40" maxVehicleNumber="5" />
   <interval begin="0.00" end="9296.00" id="27_17" sampledSeconds="2986.08" nVehEntered="365" nVehLeft="365" nVehSeen="365" meanSpeed="2.89" meanTimeLoss="6.49" meanOccupancy="6.96" maxOccupancy="77.48" meanMaxJamLengthInVehicles="0.22" meanMaxJamLengthInMeters="1.22" maxJamLengthInVehicles="4" maxJamLengthInMeters="20.00" jamLengthInVehiclesSum="2049" jamLengthInMetersSum="11370.19" meanHaltingDuration="24.99" maxHaltingDuration="134.00" haltingDurationSum="1849.00" meanIntervalHaltingDuration="24.99" maxIntervalHaltingDuration="134.00" intervalHaltingDurationSum="1849.00" startedHalts="94.00" meanVehicleNumber="0.36" maxVehicleNumber="4" />
   <interval begin="0.00" end="9296.00" id="27_18" sampledSeconds="210.24" nVehEntered="108" nVehLeft="108" nVehSeen="108" meanSpeed="11.49" meanTimeLoss="0.33" meanOccupancy="0.45" maxOccupancy="35.22" meanMaxJamLengthInVehicles="0.00" meanMaxJamLengthInMeters="0.00" maxJamLengthInVehicles="0" maxJamLengthInMeters="0.00" jamLengthInVehiclesSum="0" jamLengthInMetersSum="0.00" meanHaltingDuration="0.00" maxHaltingDuration="0.00" haltingDurationSum="0.00" meanIntervalHaltingDuration="0.00" maxIntervalHaltingDuration="0.00" intervalHaltingDurationSum="0.00" startedHalts="0.00" meanVehicleNumber="0.03" maxVehicleNumber="2" />
   <interval begin="0.00" end="9296.00" id="27_19" sampledSeconds="893.65" nVehEntered="391" nVehLeft="391" nVehSeen="391" meanSpeed="11.09" meanTimeLoss="0.44" meanOccupancy="2.00" maxOccupancy="60.00" meanMaxJamLengthInVehicles="0.00" meanMaxJamLengthInMeters="0.00" maxJamLengthInVehicles="0" maxJamLengthInMeters="0.00" jamLengthInVehiclesSum="0" jamLengthInMetersSum="0.00" meanHaltingDuration="0.00" maxHaltingDuration="0.00" haltingDurationSum="0.00" meanIntervalHaltingDuration="0.00" maxIntervalHaltingDuration="0.00" intervalHaltingDurationSum="0.00" startedHalts="0.00" meanVehicleNumber="0.14" maxVehicleNumber="2" />
   <interval begin="0.00" end="9296.00" id="27_20" sampledSeconds="51754.91" nVehEntered="509" nVehLeft="509" nVehSeen="509" meanSpeed="0.73" meanTimeLoss="95.94" meanOccupancy="34.43" maxOccupancy="79.23" meanMaxJamLengthInVehicles="4.59" meanMaxJamLengthInMeters="28.83" maxJamLengthInVehicles="13" maxJamLengthInMeters="79.52" jamLengthInVehiclesSum="43204" jamLengthInMetersSum="270740.20" meanHaltingDuration="36.19" maxHaltingDuration="152.00" haltingDurationSum="43929.00" meanIntervalHaltingDuration="36.19" maxIntervalHaltingDuration="152.00" intervalHaltingDurationSum="43929.00" startedHalts="1235.00" meanVehicleNumber="5.62" maxVehicleNumber="13" />
   <interval begin="0.00" end="9296.00" id="27_21" sampledSeconds="47370.54" nVehEntered="720" nVehLeft="720" nVehSeen="720" meanSpeed="0.70" meanTimeLoss="62.46" meanOccupancy="30.65" maxOccupancy="78.60" meanMaxJamLengthInVehicles="4.22" meanMaxJamLengthInMeters="25.73" maxJamLengthInVehicles="13" maxJamLengthInMeters="79.52" jamLengthInVehiclesSum="39959" jamLengthInMetersSum="243508.85" meanHaltingDuration="34.78" maxHaltingDuration="153.00" haltingDurationSum="40315.00" meanIntervalHaltingDuration="34.78" maxIntervalHaltingDuration="153.00" intervalHaltingDurationSum="40315.00" startedHalts="1229.00" meanVehicleNumber="5.15" maxVehicleNumber="13" />
   <interval begin="0.00" end="9296.00" id="27_22" sampledSeconds="43749.90" nVehEntered="356" nVehLeft="356" nVehSeen="356" meanSpeed="0.52" meanTimeLoss="118.24" meanOccupancy="28.27" maxOccupancy="78.60" meanMaxJamLengthInVehicles="4.01" meanMaxJamLengthInMeters="24.37" maxJamLengthInVehicles="13" maxJamLengthInMeters="79.10" jamLengthInVehiclesSum="37876" jamLengthInMetersSum="229639.60" meanHaltingDuration="38.06" maxHaltingDuration="192.00" haltingDurationSum="38707.00" meanIntervalHaltingDuration="38.06" maxIntervalHaltingDuration="192.00" intervalHaltingDurationSum="38707.00" startedHalts="1021.00" meanVehicleNumber="4.73" maxVehicleNumber="13" />
   <interval begin="0.00" end="9296.00" id="27_23" sampledSeconds="0.00" nVehEntered="0" nVehLeft="0" nVehSeen="0" meanSpeed="-1.00" meanTimeLoss="-1.00" meanOccupancy="0.00" maxOccupancy="0.00" meanMaxJamLengthInVehicles="0.00" meanMaxJamLengthInMeters="0.00" maxJamLengthInVehicles="0" maxJamLengthInMeters="0.00" jamLengthInVehiclesSum="0" jamLengthInMetersSum="0.00" meanHaltingDuration="0.00" maxHaltingDuration="0.00" haltingDurationSum="0.00" meanIntervalHaltingDuration="0.00" maxIntervalHaltingDuration="0.00" intervalHaltingDurationSum="0.00" startedHalts="0.00" meanVehicleNumber="0.00" maxVehicleNumber="0" />
   <interval begin="0.00" end="9296.00" id="27_24" sampledSeconds="572.63" nVehEntered="24" nVehLeft="24" nVehSeen="24" meanSpeed="0.94" meanTimeLoss="22.25" meanOccupancy="5.80" maxOccupancy="100.00" meanMaxJamLengthInVehicles="0.05" meanMaxJamLengthInMeters="0.52" maxJamLengthInVehicles="1" maxJamLengthInMeters="10.38" jamLengthInVehiclesSum="469" jamLengthInMetersSum="4866.53" meanHaltingDuration="32.27" maxHaltingDuration="132.00" haltingDurationSum="484.00" meanIntervalHaltingDuration="32.27" maxIntervalHaltingDuration="132.00" intervalHaltingDurationSum="484.00" startedHalts="15.00" meanVehicleNumber="0.06" maxVehicleNumber="1" />
   <interval begin="0.00" end="9296.00" id="27_25" sampledSeconds="0.00" nVehEntered="0" nVehLeft="0" nVehSeen="0" meanSpeed="-1.00" meanTimeLoss="-1.00" meanOccupancy="0.00" maxOccupancy="0.00" meanMaxJamLengthInVehicles="0.00" meanMaxJamLengthInMeters="0.00" maxJamLengthInVehicles="0" maxJamLengthInMeters="0.00" jamLengthInVehiclesSum="0" jamLengthInMetersSum="0.00" meanHaltingDuration="0.00" maxHaltingDuration="0.00" haltingDurationSum="0.00" meanIntervalHaltingDuration="0.00" maxIntervalHaltingDuration="0.00" intervalHaltingDurationSum="0.00" startedHalts="0.00" meanVehicleNumber="0.00" maxVehicleNumber="0" />
   <interval begin="0.00" end="9296.00" id="27_26" sampledSeconds="1341.79" nVehEntered="24" nVehLeft="24" nVehSeen="24" meanSpeed="3.01" meanTimeLoss="43.80" meanOccupancy="1.06" maxOccupancy="23.05" meanMaxJamLengthInVehicles="0.09" meanMaxJamLengthInMeters="1.09" maxJamLengthInVehicles="3" maxJamLengthInMeters="44.76" jamLengthInVehiclesSum="804" jamLengthInMetersSum="10092.06" meanHaltingDuration="21.10" maxHaltingDuration="108.00" haltingDurationSum="844.00" meanIntervalHaltingDuration="21.10" maxIntervalHaltingDuration="108.00" intervalHaltingDurationSum="844.00" startedHalts="40.00" meanVehicleNumber="0.15" maxVehicleNumber="3" />
   <interval begin="0.00" end="9296.00" id="27_27" sampledSeconds="0.00" nVehEntered="0" nVehLeft="0" nVehSeen="0" meanSpeed="-1.00" meanTimeLoss="-1.00" meanOccupancy="0.00" maxOccupancy="0.00" meanMaxJamLengthInVehicles="0.00" meanMaxJamLengthInMeters="0.00" maxJamLengthInVehicles="0" maxJamLengthInMeters="0.00" jamLengthInVehiclesSum="0" jamLengthInMetersSum="0.00" meanHaltingDuration="0.00" maxHaltingDuration="0.00" haltingDurationSum="0.00" meanIntervalHaltingDuration="0.00" maxIntervalHaltingDuration="0.00" intervalHaltingDurationSum="0.00" startedHalts="0.00" meanVehicleNumber="0.00" maxVehicleNumber="0" />
   <interval begin="0.00" end="9296.00" id="27_28" sampledSeconds="29337.98" nVehEntered="455" nVehLeft="455" nVehSeen="455" meanSpeed="0.90" meanTimeLoss="60.23" meanOccupancy="25.97" maxOccupancy="79.85" meanMaxJamLengthInVehicles="2.58" meanMaxJamLengthInMeters="15.31" maxJamLengthInVehicles="10" maxJamLengthInMeters="57.10" jamLengthInVehiclesSum="24132" jamLengthInMetersSum="142777.36" meanHaltingDuration="31.60" maxHaltingDuration="158.00" haltingDurationSum="24898.00" meanIntervalHaltingDuration="31.60" maxIntervalHaltingDuration="158.00" intervalHaltingDurationSum="24898.00" startedHalts="793.00" meanVehicleNumber="3.20" maxVehicleNumber="10" />