<?xml version="1.0" encoding="UTF-8"?>

<!-- generated on 2025-10-20 17:57:52 by Eclipse SUMO libsumo Version 1.24.0
<libsumoConfiguration xmlns:xsi="http://www.w3.org/2001/XMLSchema-instance" xsi:noNamespaceSchemaLocation="http://sumo.dlr.de/xsd/libsumoConfiguration.xsd">

    <input>
        <net-file value="/home/julesbompard/Documents/Projets/sumo-experiments/src/sumo_experiments/preset_networks/bologna/acosta/acosta_buslanes.net.xml"/>
        <route-files value="/home/julesbompard/Documents/Projets/sumo-experiments/src/sumo_experiments/preset_networks/bologna/acosta/acosta_27490.rou.xml,/home/julesbompard/Documents/Projets/sumo-experiments/src/sumo_experiments/preset_networks/bologna/acosta/acosta_busses.rou.xml"/>
        <additional-files value="/home/julesbompard/Documents/Projets/sumo-experiments/src/sumo_experiments/preset_networks/bologna/acosta/acosta_tls.add.xml,/home/julesbompard/Documents/Projets/sumo-experiments/src/sumo_experiments/preset_networks/bologna/acosta/acosta_vtypes.add.xml,/home/julesbompard/Documents/Projets/sumo-experiments/src/sumo_experiments/preset_networks/bologna/acosta/acosta_detectors.add.xml,/home/julesbompard/Documents/Projets/sumo-experiments/src/sumo_experiments/preset_networks/bologna/acosta/acosta_bus_stops.add.xml"/>
    </input>

    <output>
        <tripinfo-output value="/home/julesbompard/Documents/Projets/sumo-experiments/src/sumo_experiments/preset_networks/bologna/acosta/tripinfos.xml"/>
    </output>

    <processing>
        <threads value="8"/>
        <time-to-teleport value="150"/>
    </processing>

    <report>
        <no-warnings value="true"/>
        <log value="/home/julesbompard/Documents/Projets/sumo-experiments/src/sumo_experiments/preset_networks/bologna/acosta/sumo_log.txt"/>
        <no-step-log value="true"/>
    </report>

    <random_number>
        <random value="true"/>
    </random_number>

    <gui_only>
        <gui-settings-file value="/home/julesbompard/Documents/Projets/sumo-experiments/src/sumo_experiments/preset_networks/bologna/acosta/settings.gui.xml"/>
    </gui_only>

</libsumoConfiguration>
-->

<tripinfos xmlns:xsi="http://www.w3.org/2001/XMLSchema-instance" xsi:noNamespaceSchemaLocation="http://sumo.dlr.de/xsd/tripinfo_file.xsd">
    <tripinfo id="Audinot_7_0_x7" depart="0.00" departLane="131_0" departPos="0.00" departSpeed="0.00" departDelay="0.00" arrival="72.00" arrivalLane="209_0" arrivalPos="395.59" arrivalSpeed="14.26" duration="72.00" routeLength="873.23" waitingTime="0.00" waitingCount="0" stopTime="0.00" timeLoss="10.09" rerouteNo="0" devices="tripinfo_Audinot_7_0_x7" vType="passenger1" speedFactor="1.05" vaporized=""/>
    <tripinfo id="Pepoli_8_16_x7" depart="27.00" departLane="210_0" departPos="0.00" departSpeed="0.00" departDelay="0.00" arrival="98.00" arrivalLane="134b_0" arrivalPos="156.17" arrivalSpeed="10.68" duration="71.00" routeLength="692.71" waitingTime="0.00" waitingCount="0" stopTime="0.00" timeLoss="8.19" rerouteNo="0" devices="tripinfo_Pepoli_8_16_x7" vType="passenger1" speedFactor="0.82" vaporized=""/>
    <tripinfo id="Audinot_10_2_x7" depart="42.00" departLane="131_0" departPos="0.00" departSpeed="0.00" departDelay="0.00" arrival="100.00" arrivalLane="116_0" arrivalPos="1.68" arrivalSpeed="3.68" duration="58.00" routeLength="515.04" waitingTime="0.00" waitingCount="0" stopTime="0.00" timeLoss="11.79" rerouteNo="0" devices="tripinfo_Audinot_10_2_x7" vType="passenger1" speedFactor="0.84" vaporized="traci"/>
    <tripinfo id="Audinot_12_1_x7" depart="21.00" departLane="131_0" departPos="0.00" departSpeed="0.00" departDelay="0.00" arrival="100.00" arrivalLane="159_0" arrivalPos="9.52" arrivalSpeed="8.75" duration="79.00" routeLength="925.34" waitingTime="0.00" waitingCount="0" stopTime="0.00" timeLoss="9.86" rerouteNo="0" devices="tripinfo_Audinot_12_1_x7" vType="ignoring1" speedFactor="1.00" vaporized="traci"/>
    <tripinfo id="Audinot_12_3_x7" depart="64.00" departLane="131_0" departPos="0.00" departSpeed="0.00" departDelay="0.00" arrival="100.00" arrivalLane="65_0" arrivalPos="55.08" arrivalSpeed="13.19" duration="36.00" routeLength="397.69" waitingTime="0.00" waitingCount="0" stopTime="0.00" timeLoss="5.63" rerouteNo="0" devices="tripinfo_Audinot_12_3_x7" vType="ignoring2a" speedFactor="1.00" vaporized="traci"/>
    <tripinfo id="Costa_12_0_x7" depart="0.00" departLane="78[0]_0" departPos="0.00" departSpeed="0.00" departDelay="0.00" arrival="100.00" arrivalLane="180_0" arrivalPos="170.21" arrivalSpeed="14.27" duration="100.00" routeLength="1179.92" waitingTime="0.00" waitingCount="0" stopTime="0.00" timeLoss="15.22" rerouteNo="0" devices="tripinfo_Costa_12_0_x7" vType="passenger4" speedFactor="1.03" vaporized="traci"/>
    <tripinfo id="Costa_12_11_x7" depart="28.00" departLane="78[0]_0" departPos="0.00" departSpeed="0.00" departDelay="0.00" arrival="100.00" arrivalLane="11_0" arrivalPos="13.79" arrivalSpeed="3.01" duration="72.00" routeLength="814.70" waitingTime="0.00" waitingCount="0" stopTime="0.00" timeLoss="10.18" rerouteNo="0" devices="tripinfo_Costa_12_11_x7" vType="passenger5" speedFactor="0.97" vaporized="traci"/>
    <tripinfo id="Costa_12_13_x7" depart="33.00" departLane="78[0]_0" departPos="0.00" departSpeed="0.00" departDelay="0.00" arrival="100.00" arrivalLane="79_0" arrivalPos="144.80" arrivalSpeed="11.94" duration="67.00" routeLength="684.40" waitingTime="0.00" waitingCount="0" stopTime="0.00" timeLoss="7.45" rerouteNo="0" devices="tripinfo_Costa_12_13_x7" vType="passenger3" speedFactor="0.86" vaporized="traci"/>
    <tripinfo id="Costa_12_14_x7" depart="36.00" departLane="78[0]_0" departPos="0.00" departSpeed="0.00" departDelay="0.00" arrival="100.00" arrivalLane="79_0" arrivalPos="124.83" arrivalSpeed="11.43" duration="64.00" routeLength="661.60" waitingTime="0.00" waitingCount="0" stopTime="0.00" timeLoss="13.90" rerouteNo="0" devices="tripinfo_Costa_12_14_x7" vType="passenger5" speedFactor="0.98" vaporized="traci"/>
    <tripinfo id="Costa_12_18_x7" depart="47.00" departLane="78[0]_0" departPos="0.00" departSpeed="0.00" departDelay="0.00" arrival="100.00" arrivalLane=":40_2_0" arrivalPos="8.68" arrivalSpeed="12.10" duration="53.00" routeLength="517.19" waitingTime="0.00" waitingCount="0" stopTime="0.00" timeLoss="18.69" rerouteNo="0" devices="tripinfo_Costa_12_18_x7" vType="passenger1" speedFactor="1.14" vaporized="traci"/>
    <tripinfo id="Costa_12_1_x7" depart="7.00" departLane="78[0]_0" departPos="0.00" departSpeed="0.00" departDelay="5.00" arrival="100.00" arrivalLane="180_0" arrivalPos="117.93" arrivalSpeed="13.90" duration="93.00" routeLength="1127.64" waitingTime="0.00" waitingCount="0" stopTime="0.00" timeLoss="11.86" rerouteNo="0" devices="tripinfo_Costa_12_1_x7" vType="passenger4" speedFactor="1.04" vaporized="traci"/>
    <tripinfo id="Costa_12_23_x7" depart="60.00" departLane="78[0]_0" departPos="0.00" departSpeed="0.00" departDelay="0.00" arrival="100.00" arrivalLane="78[0]_0" arrivalPos="406.63" arrivalSpeed="10.01" duration="40.00" routeLength="406.63" waitingTime="0.00" waitingCount="0" stopTime="0.00" timeLoss="14.46" rerouteNo="0" devices="tripinfo_Costa_12_23_x7" vType="passenger2a" speedFactor="1.19" vaporized="traci"/>
    <tripinfo id="Costa_12_29_x7" depart="76.00" departLane="78[0]_0" departPos="0.00" departSpeed="0.00" departDelay="1.00" arrival="100.00" arrivalLane="78[0]_0" arrivalPos="292.72" arrivalSpeed="14.67" duration="24.00" routeLength="292.72" waitingTime="0.00" waitingCount="0" stopTime="0.00" timeLoss="4.33" rerouteNo="0" devices="tripinfo_Costa_12_29_x7" vType="passenger3" speedFactor="1.13" vaporized="traci"/>
    <tripinfo id="Costa_12_3_x7" depart="12.00" departLane="78[0]_0" departPos="0.00" departSpeed="0.00" departDelay="5.00" arrival="100.00" arrivalLane=":9_8_0" arrivalPos="0.53" arrivalSpeed="1.53" duration="88.00" routeLength="835.36" waitingTime="10.00" waitingCount="1" stopTime="0.00" timeLoss="23.41" rerouteNo="0" devices="tripinfo_Costa_12_3_x7" vType="passenger2b" speedFactor="0.96" vaporized="traci"/>
    <tripinfo id="Costa_12_7_x7" depart="21.00" departLane="78[0]_0" departPos="0.00" departSpeed="0.00" departDelay="3.00" arrival="100.00" arrivalLane="11_0" arrivalPos="26.92" arrivalSpeed="0.00" duration="79.00" routeLength="827.83" waitingTime="10.00" waitingCount="1" stopTime="0.00" timeLoss="20.67" rerouteNo="0" devices="tripinfo_Costa_12_7_x7" vType="passenger1" speedFactor="1.06" vaporized="traci"/>
    <tripinfo id="Costa_1_15_x7" depart="39.00" departLane="78[0]_0" departPos="0.00" departSpeed="0.00" departDelay="0.00" arrival="100.00" arrivalLane="79_0" arrivalPos="105.10" arrivalSpeed="11.11" duration="61.00" routeLength="644.70" waitingTime="0.00" waitingCount="0" stopTime="0.00" timeLoss="10.51" rerouteNo="0" devices="tripinfo_Costa_1_15_x7" vType="passenger3" speedFactor="0.95" vaporized="traci"/>
    <tripinfo id="Costa_1_28_x7" depart="73.00" departLane="78[0]_0" departPos="0.00" departSpeed="0.00" departDelay="0.00" arrival="100.00" arrivalLane="78[0]_0" arrivalPos="348.27" arrivalSpeed="12.97" duration="27.00" routeLength="348.27" waitingTime="0.00" waitingCount="0" stopTime="0.00" timeLoss="5.12" rerouteNo="0" devices="tripinfo_Costa_1_28_x7" vType="passenger3" speedFactor="1.20" vaporized="traci"/>
    <tripinfo id="Costa_1_2_x7" depart="10.00" departLane="78[0]_0" departPos="0.00" departSpeed="0.00" departDelay="5.00" arrival="100.00" arrivalLane="86_1" arrivalPos="219.51" arrivalSpeed="12.98" duration="90.00" routeLength="1090.06" waitingTime="0.00" waitingCount="0" stopTime="0.00" timeLoss="11.51" rerouteNo="0" devices="tripinfo_Costa_1_2_x7" vType="passenger2a" speedFactor="1.03" vaporized="traci"/>
    <tripinfo id="Costa_1_4_x7" depart="15.00" departLane="78[0]_0" departPos="0.00" departSpeed="0.00" departDelay="5.00" arrival="100.00" arrivalLane=":9_9_0" arrivalPos="0.64" arrivalSpeed="1.64" duration="85.00" routeLength="835.47" waitingTime="10.00" waitingCount="1" stopTime="0.00" timeLoss="24.10" rerouteNo="0" devices="tripinfo_Costa_1_4_x7" vType="passenger2a" speedFactor="1.03" vaporized="traci"/>
    <tripinfo id="Costa_200_25_x7" depart="65.00" departLane="78[0]_0" departPos="0.00" departSpeed="0.00" departDelay="0.00" arrival="100.00" arrivalLane="78[0]_0" arrivalPos="389.43" arrivalSpeed="11.20" duration="35.00" routeLength="389.43" waitingTime="0.00" waitingCount="0" stopTime="0.00" timeLoss="4.99" rerouteNo="0" devices="tripinfo_Costa_200_25_x7" vType="passenger2b" speedFactor="0.97" vaporized="traci"/>
    <tripinfo id="Costa_3_21_x7" depart="54.00" departLane="78[0]_0" departPos="0.00" departSpeed="0.00" departDelay="0.00" arrival="100.00" arrivalLane="m1_0" arrivalPos="11.27" arrivalSpeed="0.03" duration="46.00" routeLength="459.13" waitingTime="1.00" waitingCount="1" stopTime="0.00" timeLoss="11.53" rerouteNo="0" devices="tripinfo_Costa_3_21_x7" vType="passenger2b" speedFactor="1.00" vaporized="traci"/>
    <tripinfo id="Costa_3_38_x7" depart="99.00" departLane="78[0]_0" departPos="0.00" departSpeed="0.00" departDelay="0.00" arrival="100.00" arrivalLane="78[0]_0" arrivalPos="0.00" arrivalSpeed="0.00" duration="1.00" routeLength="0.00" waitingTime="0.00" waitingCount="0" stopTime="0.00" timeLoss="0.00" rerouteNo="0" devices="tripinfo_Costa_3_38_x7" vType="passenger3" speedFactor="1.02" vaporized="traci"/>
    <tripinfo id="Costa_50_20_x7" depart="52.00" departLane="78[0]_0" departPos="0.00" departSpeed="0.00" departDelay="0.00" arrival="100.00" arrivalLane="m1_0" arrivalPos="17.28" arrivalSpeed="0.01" duration="48.00" routeLength="465.14" waitingTime="3.00" waitingCount="1" stopTime="0.00" timeLoss="14.83" rerouteNo="0" devices="tripinfo_Costa_50_20_x7" vType="passenger1" speedFactor="1.06" vaporized="traci"/>
    <tripinfo id="Costa_50_22_x7" depart="57.00" departLane="78[0]_0" departPos="0.00" departSpeed="0.00" departDelay="0.00" arrival="100.00" arrivalLane="56a_0" arrivalPos="5.16" arrivalSpeed="11.40" duration="43.00" routeLength="427.02" waitingTime="0.00" waitingCount="0" stopTime="0.00" timeLoss="5.32" rerouteNo="0" devices="tripinfo_Costa_50_22_x7" vType="passenger1" speedFactor="0.84" vaporized="traci"/>
    <tripinfo id="Costa_50_32_x7" depart="83.00" departLane="78[0]_0" departPos="0.00" departSpeed="0.00" departDelay="0.00" arrival="100.00" arrivalLane="78[0]_0" arrivalPos="177.33" arrivalSpeed="13.25" duration="17.00" routeLength="177.33" waitingTime="0.00" waitingCount="0" stopTime="0.00" timeLoss="3.66" rerouteNo="0" devices="tripinfo_Costa_50_32_x7" vType="passenger2a" speedFactor="1.03" vaporized="traci"/>
    <tripinfo id="Costa_50_36_x7" depart="94.00" departLane="78[0]_0" departPos="0.00" departSpeed="0.00" departDelay="0.00" arrival="100.00" arrivalLane="78[0]_0" arrivalPos="34.13" arrivalSpeed="11.44" duration="6.00" routeLength="34.13" waitingTime="0.00" waitingCount="0" stopTime="0.00" timeLoss="2.52" rerouteNo="0" devices="tripinfo_Costa_50_36_x7" vType="passenger2a" speedFactor="0.99" vaporized="traci"/>
    <tripinfo id="Costa_50_6_x7" depart="17.00" departLane="78[0]_0" departPos="0.00" departSpeed="0.00" departDelay="2.00" arrival="100.00" arrivalLane=":13_3_0" arrivalPos="10.86" arrivalSpeed="12.85" duration="83.00" routeLength="870.05" waitingTime="3.00" waitingCount="1" stopTime="0.00" timeLoss="17.99" rerouteNo="0" devices="tripinfo_Costa_50_6_x7" vType="passenger3" speedFactor="1.01" vaporized="traci"/>
    <tripinfo id="Costa_50_8_x7" depart="24.00" departLane="78[0]_0" departPos="0.00" departSpeed="0.00" departDelay="4.00" arrival="100.00" arrivalLane="16_0" arrivalPos="56.57" arrivalSpeed="12.14" duration="76.00" routeLength="824.33" waitingTime="0.00" waitingCount="0" stopTime="0.00" timeLoss="9.74" rerouteNo="0" devices="tripinfo_Costa_50_8_x7" vType="passenger2a" speedFactor="0.93" vaporized="traci"/>
    <tripinfo id="Costa_700_16_x7" depart="41.00" departLane="78[0]_0" departPos="0.00" departSpeed="0.00" departDelay="0.00" arrival="100.00" arrivalLane="78[1][1]_0" arrivalPos="21.26" arrivalSpeed="10.86" duration="59.00" routeLength="534.62" waitingTime="0.00" waitingCount="0" stopTime="0.00" timeLoss="8.00" rerouteNo="0" devices="tripinfo_Costa_700_16_x7" vType="passenger1" speedFactor="0.79" vaporized="traci"/>
    <tripinfo id="Costa_700_35_x7" depart="91.00" departLane="78[0]_0" departPos="0.00" departSpeed="0.00" departDelay="0.00" arrival="100.00" arrivalLane="78[0]_0" arrivalPos="71.38" arrivalSpeed="11.83" duration="9.00" routeLength="71.38" waitingTime="0.00" waitingCount="0" stopTime="0.00" timeLoss="2.26" rerouteNo="0" devices="tripinfo_Costa_700_35_x7" vType="passenger2a" speedFactor="0.89" vaporized="traci"/>
    <tripinfo id="Costa_70_27_x7" depart="70.00" departLane="78[0]_0" departPos="0.00" departSpeed="0.00" departDelay="0.00" arrival="100.00" arrivalLane="78[0]_0" arrivalPos="369.91" arrivalSpeed="11.75" duration="30.00" routeLength="369.91" waitingTime="0.00" waitingCount="0" stopTime="0.00" timeLoss="6.48" rerouteNo="0" devices="tripinfo_Costa_70_27_x7" vType="passenger3" speedFactor="1.18" vaporized="traci"/>
    <tripinfo id="Costa_70_34_x7" depart="88.00" departLane="78[0]_0" departPos="0.00" departSpeed="0.00" departDelay="0.00" arrival="100.00" arrivalLane="78[0]_0" arrivalPos="111.55" arrivalSpeed="14.19" duration="12.00" routeLength="111.55" waitingTime="0.00" waitingCount="0" stopTime="0.00" timeLoss="3.40" rerouteNo="0" devices="tripinfo_Costa_70_34_x7" vType="passenger1" speedFactor="1.06" vaporized="traci"/>
    <tripinfo id="Pepoli_10_10_x7" depart="17.00" departLane="210_0" departPos="0.00" departSpeed="0.00" departDelay="0.00" arrival="100.00" arrivalLane="204a[0]_1" arrivalPos="137.83" arrivalSpeed="13.70" duration="83.00" routeLength="930.21" waitingTime="6.00" waitingCount="1" stopTime="0.00" timeLoss="27.99" rerouteNo="0" devices="tripinfo_Pepoli_10_10_x7" vType="passenger3" speedFactor="1.24" vaporized="traci"/>
    <tripinfo id="Pepoli_10_11_x7" depart="18.00" departLane="210_1" departPos="0.00" departSpeed="0.00" departDelay="0.00" arrival="100.00" arrivalLane="204a[0]_0" arrivalPos="132.11" arrivalSpeed="13.85" duration="82.00" routeLength="924.49" waitingTime="7.00" waitingCount="1" stopTime="0.00" timeLoss="23.34" rerouteNo="0" devices="tripinfo_Pepoli_10_11_x7" vType="passenger4" speedFactor="1.15" vaporized="traci"/>
    <tripinfo id="Pepoli_10_18_x7" depart="30.00" departLane="210_0" departPos="0.00" departSpeed="0.00" departDelay="0.00" arrival="100.00" arrivalLane="201_0" arrivalPos="231.37" arrivalSpeed="0.00" duration="70.00" routeLength="758.11" waitingTime="3.00" waitingCount="1" stopTime="0.00" timeLoss="8.85" rerouteNo="0" devices="tripinfo_Pepoli_10_18_x7" vType="passenger1" speedFactor="0.91" vaporized="traci"/>
    <tripinfo id="Pepoli_10_19_x7" depart="32.00" departLane="210_1" departPos="0.00" departSpeed="0.00" departDelay="0.00" arrival="100.00" arrivalLane="201_0" arrivalPos="165.67" arrivalSpeed="10.32" duration="68.00" routeLength="692.41" waitingTime="0.00" waitingCount="0" stopTime="0.00" timeLoss="5.70" rerouteNo="0" devices="tripinfo_Pepoli_10_19_x7" vType="passenger2a" speedFactor="0.81" vaporized="traci"/>
    <tripinfo id="Pepoli_10_20_x7" depart="34.00" departLane="210_0" departPos="0.00" departSpeed="0.00" departDelay="0.00" arrival="100.00" arrivalLane="201_1" arrivalPos="230.97" arrivalSpeed="0.00" duration="66.00" routeLength="757.71" waitingTime="2.00" waitingCount="1" stopTime="0.00" timeLoss="16.73" rerouteNo="0" devices="tripinfo_Pepoli_10_20_x7" vType="passenger1" speedFactor="1.13" vaporized="traci"/>
    <tripinfo id="Pepoli_10_22_x7" depart="37.00" departLane="210_1" departPos="0.00" departSpeed="0.00" departDelay="0.00" arrival="100.00" arrivalLane="201_0" arrivalPos="225.37" arrivalSpeed="3.08" duration="63.00" routeLength="752.11" waitingTime="0.00" waitingCount="0" stopTime="0.00" timeLoss="9.21" rerouteNo="0" devices="tripinfo_Pepoli_10_22_x7" vType="passenger2b" speedFactor="1.03" vaporized="traci"/>
    <tripinfo id="Pepoli_10_27_x7" depart="46.00" departLane="210_0" departPos="0.00" departSpeed="0.00" departDelay="0.00" arrival="100.00" arrivalLane="201_1" arrivalPos="154.33" arrivalSpeed="13.59" duration="54.00" routeLength="681.07" waitingTime="0.00" waitingCount="0" stopTime="0.00" timeLoss="5.44" rerouteNo="0" devices="tripinfo_Pepoli_10_27_x7" vType="passenger1" speedFactor="1.03" vaporized="traci"/>
    <tripinfo id="Pepoli_10_31_x7" depart="53.00" departLane="210_0" departPos="0.00" departSpeed="0.00" departDelay="0.00" arrival="100.00" arrivalLane="201_1" arrivalPos="103.00" arrivalSpeed="15.15" duration="47.00" routeLength="629.74" waitingTime="0.00" waitingCount="0" stopTime="0.00" timeLoss="5.03" rerouteNo="0" devices="tripinfo_Pepoli_10_31_x7" vType="passenger2b" speedFactor="1.11" vaporized="traci"/>
    <tripinfo id="Pepoli_10_34_x7" depart="58.00" departLane="210_0" departPos="0.00" departSpeed="0.00" departDelay="0.00" arrival="100.00" arrivalLane="43[1]_0" arrivalPos="64.72" arrivalSpeed="12.04" duration="42.00" routeLength="478.75" waitingTime="0.00" waitingCount="0" stopTime="0.00" timeLoss="4.75" rerouteNo="0" devices="tripinfo_Pepoli_10_34_x7" vType="passenger2b" speedFactor="0.95" vaporized="traci"/>
    <tripinfo id="Pepoli_10_39_x7" depart="66.00" departLane="210_0" departPos="0.00" departSpeed="0.00" departDelay="0.00" arrival="100.00" arrivalLane="43[1]_1" arrivalPos="6.22" arrivalSpeed="13.92" duration="34.00" routeLength="420.25" waitingTime="0.00" waitingCount="0" stopTime="0.00" timeLoss="4.12" rerouteNo="0" devices="tripinfo_Pepoli_10_39_x7" vType="passenger3" speedFactor="1.05" vaporized="traci"/>
    <tripinfo id="Pepoli_10_40_x7" depart="68.00" departLane="210_1" departPos="0.00" departSpeed="0.00" departDelay="0.00" arrival="100.00" arrivalLane="43[0]_1" arrivalPos="8.92" arrivalSpeed="14.38" duration="32.00" routeLength="383.48" waitingTime="0.00" waitingCount="0" stopTime="0.00" timeLoss="4.67" rerouteNo="0" devices="tripinfo_Pepoli_10_40_x7" vType="passenger4" speedFactor="1.05" vaporized="traci"/>
    <tripinfo id="Pepoli_10_49_x7" depart="84.00" departLane="210_1" departPos="0.00" departSpeed="0.00" departDelay="0.00" arrival="100.00" arrivalLane="210_1" arrivalPos="162.28" arrivalSpeed="14.06" duration="16.00" routeLength="162.28" waitingTime="0.00" waitingCount="0" stopTime="0.00" timeLoss="3.61" rerouteNo="0" devices="tripinfo_Pepoli_10_49_x7" vType="passenger1" speedFactor="1.03" vaporized="traci"/>
    <tripinfo id="Pepoli_10_4_x7" depart="6.00" departLane="210_0" departPos="0.00" departSpeed="0.00" departDelay="0.00" arrival="100.00" arrivalLane="204a[0]_0" arrivalPos="155.93" arrivalSpeed="14.14" duration="94.00" routeLength="948.31" waitingTime="9.00" waitingCount="2" stopTime="0.00" timeLoss="30.27" rerouteNo="0" devices="tripinfo_Pepoli_10_4_x7" vType="passenger5" speedFactor="1.09" vaporized="traci"/>
    <tripinfo id="Pepoli_10_50_x7" depart="85.00" departLane="210_0" departPos="0.00" departSpeed="0.00" departDelay="0.00" arrival="100.00" arrivalLane="210_0" arrivalPos="149.14" arrivalSpeed="13.23" duration="15.00" routeLength="149.14" waitingTime="0.00" waitingCount="0" stopTime="0.00" timeLoss="3.75" rerouteNo="0" devices="tripinfo_Pepoli_10_50_x7" vType="passenger3" speedFactor="1.05" vaporized="traci"/>
    <tripinfo id="Pepoli_10_57_x7" depart="97.00" departLane="210_0" departPos="0.00" departSpeed="0.00" departDelay="0.00" arrival="100.00" arrivalLane="210_0" arrivalPos="6.91" arrivalSpeed="4.79" duration="3.00" routeLength="6.91" waitingTime="0.00" waitingCount="0" stopTime="0.00" timeLoss="1.44" rerouteNo="0" devices="tripinfo_Pepoli_10_57_x7" vType="passenger3" speedFactor="0.89" vaporized="traci"/>
    <tripinfo id="Pepoli_11_17_x7" depart="29.00" departLane="210_1" departPos="0.00" departSpeed="0.00" departDelay="0.00" arrival="100.00" arrivalLane="204a[0]_1" arrivalPos="44.50" arrivalSpeed="15.54" duration="71.00" routeLength="836.88" waitingTime="5.00" waitingCount="1" stopTime="0.00" timeLoss="17.38" rerouteNo="0" devices="tripinfo_Pepoli_11_17_x7" vType="passenger1" speedFactor="1.15" vaporized="traci"/>
    <tripinfo id="Pepoli_11_24_x7" depart="41.00" departLane="210_1" departPos="0.00" departSpeed="0.00" departDelay="0.00" arrival="100.00" arrivalLane="204a[0]_2" arrivalPos="92.54" arrivalSpeed="16.27" duration="59.00" routeLength="884.92" waitingTime="0.00" waitingCount="0" stopTime="0.00" timeLoss="6.15" rerouteNo="0" devices="tripinfo_Pepoli_11_24_x7" vType="passenger1" speedFactor="1.23" vaporized="traci"/>
    <tripinfo id="Pepoli_11_30_x7" depart="51.00" departLane="210_1" departPos="0.00" departSpeed="0.00" departDelay="0.00" arrival="100.00" arrivalLane="201_0" arrivalPos="90.28" arrivalSpeed="14.45" duration="49.00" routeLength="617.02" waitingTime="0.00" waitingCount="0" stopTime="0.00" timeLoss="5.95" rerouteNo="0" devices="tripinfo_Pepoli_11_30_x7" vType="passenger1" speedFactor="1.06" vaporized="traci"/>
    <tripinfo id="Pepoli_11_32_x7" depart="54.00" departLane="210_1" departPos="0.00" departSpeed="0.00" departDelay="0.00" arrival="100.00" arrivalLane="201_0" arrivalPos="0.11" arrivalSpeed="12.91" duration="46.00" routeLength="526.85" waitingTime="0.00" waitingCount="0" stopTime="0.00" timeLoss="4.59" rerouteNo="0" devices="tripinfo_Pepoli_11_32_x7" vType="passenger1" speedFactor="0.94" vaporized="traci"/>
    <tripinfo id="Pepoli_11_35_x7" depart="60.00" departLane="210_1" departPos="0.00" departSpeed="0.00" departDelay="0.00" arrival="100.00" arrivalLane=":34_0_0" arrivalPos="6.55" arrivalSpeed="11.54" duration="40.00" routeLength="402.09" waitingTime="0.00" waitingCount="0" stopTime="0.00" timeLoss="4.73" rerouteNo="0" devices="tripinfo_Pepoli_11_35_x7" vType="passenger1" speedFactor="0.84" vaporized="traci"/>
    <tripinfo id="Pepoli_11_37_x7" depart="63.00" departLane="210_1" departPos="0.00" departSpeed="0.00" departDelay="0.00" arrival="100.00" arrivalLane="43[1]_1" arrivalPos="45.98" arrivalSpeed="14.73" duration="37.00" routeLength="460.01" waitingTime="0.00" waitingCount="0" stopTime="0.00" timeLoss="4.87" rerouteNo="0" devices="tripinfo_Pepoli_11_37_x7" vType="passenger5" speedFactor="1.06" vaporized="traci"/>
    <tripinfo id="Pepoli_11_3_x7" depart="5.00" departLane="210_1" departPos="0.00" departSpeed="0.00" departDelay="0.00" arrival="100.00" arrivalLane="204a[0]_1" arrivalPos="115.22" arrivalSpeed="12.97" duration="95.00" routeLength="907.60" waitingTime="7.00" waitingCount="2" stopTime="0.00" timeLoss="25.16" rerouteNo="0" devices="tripinfo_Pepoli_11_3_x7" vType="passenger1" speedFactor="0.95" vaporized="traci"/>
    <tripinfo id="Pepoli_11_41_x7" depart="71.00" departLane="210_1" departPos="0.00" departSpeed="0.00" departDelay="1.00" arrival="100.00" arrivalLane="210_0" arrivalPos="274.53" arrivalSpeed="9.96" duration="29.00" routeLength="274.53" waitingTime="0.00" waitingCount="0" stopTime="0.00" timeLoss="3.71" rerouteNo="0" devices="tripinfo_Pepoli_11_41_x7" vType="passenger3" speedFactor="0.81" vaporized="traci"/>
    <tripinfo id="Pepoli_11_52_x7" depart="89.00" departLane="210_1" departPos="0.00" departSpeed="0.00" departDelay="0.00" arrival="100.00" arrivalLane="210_1" arrivalPos="98.20" arrivalSpeed="13.99" duration="11.00" routeLength="98.20" waitingTime="0.00" waitingCount="0" stopTime="0.00" timeLoss="3.10" rerouteNo="0" devices="tripinfo_Pepoli_11_52_x7" vType="passenger1" speedFactor="1.02" vaporized="traci"/>
    <tripinfo id="Pepoli_11_54_x7" depart="92.00" departLane="210_1" departPos="0.00" departSpeed="0.00" departDelay="0.00" arrival="100.00" arrivalLane="210_1" arrivalPos="60.54" arrivalSpeed="13.64" duration="8.00" routeLength="60.54" waitingTime="0.00" waitingCount="0" stopTime="0.00" timeLoss="2.91" rerouteNo="0" devices="tripinfo_Pepoli_11_54_x7" vType="passenger3" speedFactor="1.07" vaporized="traci"/>
    <tripinfo id="Pepoli_11_6_x7" depart="10.00" departLane="210_1" departPos="0.00" departSpeed="0.00" departDelay="0.00" arrival="100.00" arrivalLane="204a[0]_1" arrivalPos="159.40" arrivalSpeed="14.07" duration="90.00" routeLength="951.78" waitingTime="7.00" waitingCount="1" stopTime="0.00" timeLoss="22.47" rerouteNo="0" devices="tripinfo_Pepoli_11_6_x7" vType="passenger2a" speedFactor="1.03" vaporized="traci"/>
    <tripinfo id="Pepoli_11_8_x7" depart="13.00" departLane="210_1" departPos="0.00" departSpeed="0.00" departDelay="0.00" arrival="100.00" arrivalLane="204a[0]_2" arrivalPos="130.58" arrivalSpeed="14.09" duration="87.00" routeLength="922.96" waitingTime="3.00" waitingCount="1" stopTime="0.00" timeLoss="21.14" rerouteNo="0" devices="tripinfo_Pepoli_11_8_x7" vType="passenger2a" speedFactor="1.02" vaporized="traci"/>
    <tripinfo id="Pepoli_3_12_x7" depart="20.00" departLane="210_2" departPos="0.00" departSpeed="0.00" departDelay="0.00" arrival="100.00" arrivalLane="57[0]_0" arrivalPos="164.57" arrivalSpeed="12.75" duration="80.00" routeLength="840.15" waitingTime="6.00" waitingCount="1" stopTime="0.00" timeLoss="18.08" rerouteNo="0" devices="tripinfo_Pepoli_3_12_x7" vType="ignoring1" speedFactor="1.00" vaporized="traci"/>
    <tripinfo id="Pepoli_3_43_x7" depart="73.00" departLane="210_2" departPos="0.00" departSpeed="0.00" departDelay="0.00" arrival="100.00" arrivalLane="210_2" arrivalPos="310.04" arrivalSpeed="13.60" duration="27.00" routeLength="310.04" waitingTime="0.00" waitingCount="0" stopTime="0.00" timeLoss="3.68" rerouteNo="0" devices="tripinfo_Pepoli_3_43_x7" vType="ignoring2a" speedFactor="1.00" vaporized="traci"/>
    <tripinfo id="Pepoli_8_23_x7" depart="39.00" departLane="210_0" departPos="0.00" departSpeed="0.00" departDelay="0.00" arrival="100.00" arrivalLane="134b_0" arrivalPos="120.39" arrivalSpeed="11.87" duration="61.00" routeLength="656.93" waitingTime="0.00" waitingCount="0" stopTime="0.00" timeLoss="7.21" rerouteNo="0" devices="tripinfo_Pepoli_8_23_x7" vType="passenger4" speedFactor="0.91" vaporized="traci"/>
    <tripinfo id="Pepoli_8_28_x7" depart="48.00" departLane="210_0" departPos="0.00" departSpeed="0.00" departDelay="0.00" arrival="100.00" arrivalLane="134b_0" arrivalPos="95.93" arrivalSpeed="14.51" duration="52.00" routeLength="632.47" waitingTime="0.00" waitingCount="0" stopTime="0.00" timeLoss="8.15" rerouteNo="0" devices="tripinfo_Pepoli_8_28_x7" vType="passenger1" speedFactor="1.09" vaporized="traci"/>
    <tripinfo id="Pepoli_8_44_x7" depart="75.00" departLane="210_0" departPos="0.00" departSpeed="0.00" departDelay="0.00" arrival="100.00" arrivalLane="210_0" arrivalPos="255.93" arrivalSpeed="10.48" duration="25.00" routeLength="255.93" waitingTime="0.00" waitingCount="0" stopTime="0.00" timeLoss="8.65" rerouteNo="0" devices="tripinfo_Pepoli_8_44_x7" vType="passenger2b" speedFactor="1.20" vaporized="traci"/>
    <tripinfo id="Pepoli_8_48_x7" depart="82.00" departLane="210_0" departPos="0.00" departSpeed="0.00" departDelay="0.00" arrival="100.00" arrivalLane="210_0" arrivalPos="184.87" arrivalSpeed="13.61" duration="18.00" routeLength="184.87" waitingTime="0.00" waitingCount="0" stopTime="0.00" timeLoss="4.33" rerouteNo="0" devices="tripinfo_Pepoli_8_48_x7" vType="passenger5" speedFactor="1.05" vaporized="traci"/>
    <tripinfo id="Pepoli_8_51_x7" depart="88.00" departLane="210_0" departPos="0.00" departSpeed="0.00" departDelay="1.00" arrival="100.00" arrivalLane="210_0" arrivalPos="117.02" arrivalSpeed="14.82" duration="12.00" routeLength="117.02" waitingTime="0.00" waitingCount="0" stopTime="0.00" timeLoss="3.40" rerouteNo="0" devices="tripinfo_Pepoli_8_51_x7" vType="passenger2b" speedFactor="1.11" vaporized="traci"/>