<?xml version="1.0" encoding="UTF-8"?>

<!-- generated on 2025-10-20 16:21:57 by 
<Configuration xmlns:xsi="http://www.w3.org/2001/XMLSchema-instance" xsi:noNamespaceSchemaLocation="http://sumo.dlr.de/xsd/Configuration.xsd">

    <input>
        <net-file value="/home/julesbompard/Documents/Projets/sumo-experiments/src/sumo_experiments/preset_networks/bologna/acosta/acosta_buslanes.net.xml"/>
        <route-files value="/home/julesbompard/Documents/Projets/sumo-experiments/src/sumo_experiments/preset_networks/bologna/acosta/acosta_46454.rou.xml,/home/julesbompard/Documents/Projets/sumo-experiments/src/sumo_experiments/preset_networks/bologna/acosta/acosta_busses.rou.xml"/>
        <additional-files value="/home/julesbompard/Documents/Projets/sumo-experiments/src/sumo_experiments/preset_networks/bologna/acosta/acosta_tls.add.xml,/home/julesbompard/Documents/Projets/sumo-experiments/src/sumo_experiments/preset_networks/bologna/acosta/acosta_vtypes.add.xml,/home/julesbompard/Documents/Projets/sumo-experiments/src/sumo_experiments/preset_networks/bologna/acosta/acosta_detectors.add.xml,/home/julesbompard/Documents/Projets/sumo-experiments/src/sumo_experiments/preset_networks/bologna/acosta/acosta_bus_stops.add.xml"/>
    </input>

    <output>
        <tripinfo-output value="/home/julesbompard/Documents/Projets/sumo-experiments/src/sumo_experiments/preset_networks/bologna/acosta/tripinfos.xml"/>
    </output>

    <processing>
        <time-to-teleport value="150"/>
    </processing>

    <report>
        <no-warnings value="true"/>
        <log value="/home/julesbompard/Documents/Projets/sumo-experiments/src/sumo_experiments/preset_networks/bologna/acosta/sumo_log.txt"/>
        <no-step-log value="true"/>
    </report>

    <gui_only>
        <gui-settings-file value="/home/julesbompard/Documents/Projets/sumo-experiments/src/sumo_experiments/preset_networks/bologna/acosta/settings.gui.xml"/>
    </gui_only>

</Configuration>
-->

<tripinfos xmlns:xsi="http://www.w3.org/2001/XMLSchema-instance" xsi:noNamespaceSchemaLocation="http://sumo.dlr.de/xsd/tripinfo_file.xsd">
    <tripinfo id="Audinot_7_0_x7" depart="0.00" departLane="131_0" departPos="0.00" departSpeed="0.00" departDelay="0.00" arrival="76.00" arrivalLane="209_0" arrivalPos="395.59" arrivalSpeed="13.14" duration="76.00" routeLength="873.23" waitingTime="0.00" waitingCount="0" stopTime="0.00" timeLoss="10.51" rerouteNo="0" devices="tripinfo_Audinot_7_0_x7" vType="passenger4" speedFactor="0.98" vaporized=""/>
    <tripinfo id="Silvani_11_1_x7" depart="3.00" departLane="203[0]_0" departPos="0.00" departSpeed="0.00" departDelay="1.00" arrival="113.00" arrivalLane="114_0" arrivalPos="692.70" arrivalSpeed="13.25" duration="110.00" routeLength="1114.25" waitingTime="14.00" waitingCount="1" stopTime="0.00" timeLoss="30.32" rerouteNo="0" devices="tripinfo_Silvani_11_1_x7" vType="passenger1" speedFactor="1.01" vaporized=""/>
    <tripinfo id="Costa_1_4_x7" depart="15.00" departLane="78[0]_0" departPos="0.00" departSpeed="0.00" departDelay="5.00" arrival="116.00" arrivalLane="86_1" arrivalPos="321.19" arrivalSpeed="15.23" duration="101.00" routeLength="1191.74" waitingTime="0.00" waitingCount="0" stopTime="0.00" timeLoss="23.26" rerouteNo="0" devices="tripinfo_Costa_1_4_x7" vType="passenger1" speedFactor="1.13" vaporized=""/>
    <tripinfo id="Costa_1_2_x7" depart="9.00" departLane="78[0]_0" departPos="0.00" departSpeed="0.00" departDelay="4.00" arrival="120.00" arrivalLane="86_1" arrivalPos="321.19" arrivalSpeed="12.95" duration="111.00" routeLength="1182.55" waitingTime="1.00" waitingCount="1" stopTime="0.00" timeLoss="18.82" rerouteNo="0" devices="tripinfo_Costa_1_2_x7" vType="passenger1" speedFactor="0.95" vaporized=""/>
    <tripinfo id="Silvani_11_9_x7" depart="21.00" departLane="203[0]_0" departPos="0.00" departSpeed="0.00" departDelay="0.00" arrival="122.00" arrivalLane="114_1" arrivalPos="692.70" arrivalSpeed="12.02" duration="101.00" routeLength="1114.25" waitingTime="0.00" waitingCount="0" stopTime="0.00" timeLoss="11.49" rerouteNo="0" devices="tripinfo_Silvani_11_9_x7" vType="passenger2a" speedFactor="0.90" vaporized=""/>
    <tripinfo id="Silvani_11_0_x7" depart="0.00" departLane="203[0]_0" departPos="0.00" departSpeed="0.00" departDelay="0.00" arrival="123.00" arrivalLane="114_0" arrivalPos="692.70" arrivalSpeed="10.75" duration="123.00" routeLength="1114.25" waitingTime="14.00" waitingCount="1" stopTime="0.00" timeLoss="26.21" rerouteNo="0" devices="tripinfo_Silvani_11_0_x7" vType="passenger3" speedFactor="0.83" vaporized=""/>
    <tripinfo id="Pepoli_8_21_x7" depart="36.00" departLane="210_0" departPos="0.00" departSpeed="0.00" departDelay="0.00" arrival="123.00" arrivalLane="134b_0" arrivalPos="156.17" arrivalSpeed="15.32" duration="87.00" routeLength="692.71" waitingTime="19.00" waitingCount="1" stopTime="0.00" timeLoss="41.17" rerouteNo="0" devices="tripinfo_Pepoli_8_21_x7" vType="passenger2a" speedFactor="1.12" vaporized=""/>
    <tripinfo id="Costa_3_21_x7" depart="55.00" departLane="78[0]_0" departPos="0.00" departSpeed="0.00" departDelay="1.00" arrival="126.00" arrivalLane="14_0" arrivalPos="77.26" arrivalSpeed="14.77" duration="71.00" routeLength="850.23" waitingTime="0.00" waitingCount="0" stopTime="0.00" timeLoss="15.89" rerouteNo="0" devices="tripinfo_Costa_3_21_x7" vType="passenger1" speedFactor="1.14" vaporized=""/>
    <tripinfo id="Silvani_11_12_x7" depart="28.00" departLane="203[0]_0" departPos="0.00" departSpeed="0.00" departDelay="0.00" arrival="131.00" arrivalLane="114_0" arrivalPos="692.70" arrivalSpeed="14.18" duration="103.00" routeLength="1114.25" waitingTime="12.00" waitingCount="1" stopTime="0.00" timeLoss="26.84" rerouteNo="0" devices="tripinfo_Silvani_11_12_x7" vType="passenger2a" speedFactor="1.06" vaporized=""/>
    <tripinfo id="Togliatti_2_8_x7" depart="11.00" departLane="85_0" departPos="0.00" departSpeed="0.00" departDelay="0.00" arrival="133.00" arrivalLane="77[1][1]_0" arrivalPos="463.98" arrivalSpeed="11.70" duration="122.00" routeLength="1145.48" waitingTime="11.00" waitingCount="1" stopTime="0.00" timeLoss="27.89" rerouteNo="0" devices="tripinfo_Togliatti_2_8_x7" vType="passenger1" speedFactor="0.89" vaporized=""/>
    <tripinfo id="Silvani_11_16_x7" depart="37.00" departLane="203[0]_0" departPos="0.00" departSpeed="0.00" departDelay="0.00" arrival="137.00" arrivalLane="114_0" arrivalPos="692.70" arrivalSpeed="12.64" duration="100.00" routeLength="1114.25" waitingTime="6.00" waitingCount="1" stopTime="0.00" timeLoss="18.12" rerouteNo="0" devices="tripinfo_Silvani_11_16_x7" vType="passenger3" speedFactor="0.99" vaporized=""/>
    <tripinfo id="Silvani_11_17_x7" depart="40.00" departLane="203[0]_0" departPos="0.00" departSpeed="0.00" departDelay="0.00" arrival="137.00" arrivalLane="114_1" arrivalPos="692.70" arrivalSpeed="13.64" duration="97.00" routeLength="1114.25" waitingTime="4.00" waitingCount="1" stopTime="0.00" timeLoss="17.79" rerouteNo="0" devices="tripinfo_Silvani_11_17_x7" vType="passenger1" speedFactor="1.02" vaporized=""/>
    <tripinfo id="Costa_12_0_x7" depart="0.00" departLane="78[0]_0" departPos="0.00" departSpeed="0.00" departDelay="0.00" arrival="138.00" arrivalLane="136_0" arrivalPos="186.20" arrivalSpeed="14.88" duration="138.00" routeLength="1416.45" waitingTime="21.00" waitingCount="1" stopTime="0.00" timeLoss="41.34" rerouteNo="0" devices="tripinfo_Costa_12_0_x7" vType="passenger1" speedFactor="1.08" vaporized=""/>
    <tripinfo id="Pepoli_10_4_x7" depart="6.00" departLane="210_0" departPos="0.00" departSpeed="0.00" departDelay="0.00" arrival="142.00" arrivalLane="204[1][1]_0" arrivalPos="435.51" arrivalSpeed="15.07" duration="136.00" routeLength="1470.66" waitingTime="20.00" waitingCount="2" stopTime="0.00" timeLoss="39.33" rerouteNo="0" devices="tripinfo_Pepoli_10_4_x7" vType="passenger1" speedFactor="1.10" vaporized=""/>
    <tripinfo id="Pepoli_10_11_x7" depart="18.00" departLane="210_0" departPos="0.00" departSpeed="0.00" departDelay="0.00" arrival="142.00" arrivalLane="204[1][1]_1" arrivalPos="435.51" arrivalSpeed="14.25" duration="124.00" routeLength="1470.66" waitingTime="6.00" waitingCount="3" stopTime="0.00" timeLoss="27.72" rerouteNo="0" devices="tripinfo_Pepoli_10_11_x7" vType="passenger2a" speedFactor="1.10" vaporized=""/>
    <tripinfo id="Costa_1_19_x7" depart="49.00" departLane="78[0]_0" departPos="0.00" departSpeed="0.00" departDelay="0.00" arrival="142.00" arrivalLane="86_1" arrivalPos="321.19" arrivalSpeed="14.05" duration="93.00" routeLength="1188.91" waitingTime="0.00" waitingCount="0" stopTime="0.00" timeLoss="11.52" rerouteNo="0" devices="tripinfo_Costa_1_19_x7" vType="passenger2a" speedFactor="1.08" vaporized=""/>
    <tripinfo id="Togliatti_2_32_x7" depart="45.00" departLane="85_0" departPos="0.00" departSpeed="0.00" departDelay="0.00" arrival="144.00" arrivalLane="77[1][1]_0" arrivalPos="463.98" arrivalSpeed="14.73" duration="99.00" routeLength="1145.48" waitingTime="5.00" waitingCount="1" stopTime="0.00" timeLoss="21.13" rerouteNo="0" devices="tripinfo_Togliatti_2_32_x7" vType="passenger1" speedFactor="1.09" vaporized=""/>
    <tripinfo id="Costa_1_17_x7" depart="44.00" departLane="78[0]_0" departPos="0.00" departSpeed="0.00" departDelay="0.00" arrival="145.00" arrivalLane="86_2" arrivalPos="321.19" arrivalSpeed="13.38" duration="101.00" routeLength="1185.38" waitingTime="0.00" waitingCount="0" stopTime="0.00" timeLoss="15.85" rerouteNo="0" devices="tripinfo_Costa_1_17_x7" vType="passenger1" speedFactor="1.03" vaporized=""/>
    <tripinfo id="Pepoli_10_18_x7" depart="30.00" departLane="210_0" departPos="0.00" departSpeed="0.00" departDelay="0.00" arrival="147.00" arrivalLane="204[1][1]_0" arrivalPos="435.51" arrivalSpeed="13.43" duration="117.00" routeLength="1470.66" waitingTime="1.00" waitingCount="1" stopTime="0.00" timeLoss="15.05" rerouteNo="0" devices="tripinfo_Pepoli_10_18_x7" vType="passenger2b" speedFactor="1.05" vaporized=""/>
    <tripinfo id="Costa_12_1_x7" depart="7.00" departLane="78[0]_0" departPos="0.00" departSpeed="0.00" departDelay="5.00" arrival="148.00" arrivalLane="136_0" arrivalPos="186.20" arrivalSpeed="12.18" duration="141.00" routeLength="1416.45" waitingTime="2.00" waitingCount="1" stopTime="0.00" timeLoss="22.38" rerouteNo="0" devices="tripinfo_Costa_12_1_x7" vType="passenger4" speedFactor="0.89" vaporized=""/>
    <tripinfo id="Costa_12_3_x7" depart="13.00" departLane="78[0]_0" departPos="0.00" departSpeed="0.00" departDelay="6.00" arrival="149.00" arrivalLane="136_0" arrivalPos="186.20" arrivalSpeed="13.08" duration="136.00" routeLength="1413.62" waitingTime="1.00" waitingCount="1" stopTime="0.00" timeLoss="33.49" rerouteNo="0" devices="tripinfo_Costa_12_3_x7" vType="passenger2b" speedFactor="1.02" vaporized=""/>
    <tripinfo id="Turati_3_2_x7" depart="69.00" departLane="195_0" departPos="0.00" departSpeed="0.00" departDelay="0.00" arrival="149.00" arrivalLane="14_0" arrivalPos="77.26" arrivalSpeed="13.72" duration="80.00" routeLength="947.57" waitingTime="0.00" waitingCount="0" stopTime="0.00" timeLoss="10.12" rerouteNo="0" devices="tripinfo_Turati_3_2_x7" vType="ignoring1" speedFactor="1.00" vaporized=""/>
    <tripinfo id="Pepoli_8_23_x7" depart="39.00" departLane="210_0" departPos="0.00" departSpeed="0.00" departDelay="0.00" arrival="150.00" arrivalLane="134b_0" arrivalPos="156.17" arrivalSpeed="12.39" duration="111.00" routeLength="692.71" waitingTime="36.00" waitingCount="2" stopTime="0.00" timeLoss="54.65" rerouteNo="0" devices="tripinfo_Pepoli_8_23_x7" vType="passenger2a" speedFactor="0.91" vaporized=""/>
    <tripinfo id="Togliatti_12_48_x7" depart="68.00" departLane="85_2" departPos="0.00" departSpeed="0.00" departDelay="0.00" arrival="152.00" arrivalLane="136_0" arrivalPos="186.20" arrivalSpeed="13.14" duration="84.00" routeLength="909.95" waitingTime="0.00" waitingCount="0" stopTime="0.00" timeLoss="16.49" rerouteNo="0" devices="tripinfo_Togliatti_12_48_x7" vType="passenger1" speedFactor="1.00" vaporized=""/>
    <tripinfo id="Pepoli_8_48_x7" depart="82.00" departLane="210_0" departPos="0.00" departSpeed="0.00" departDelay="0.00" arrival="152.00" arrivalLane="134b_0" arrivalPos="156.17" arrivalSpeed="14.79" duration="70.00" routeLength="692.71" waitingTime="11.00" waitingCount="1" stopTime="0.00" timeLoss="24.41" rerouteNo="0" devices="tripinfo_Pepoli_8_48_x7" vType="passenger3" speedFactor="1.13" vaporized=""/>
    <tripinfo id="Pepoli_11_8_x7" depart="13.00" departLane="210_1" departPos="0.00" departSpeed="0.00" departDelay="0.00" arrival="157.00" arrivalLane="114_1" arrivalPos="692.70" arrivalSpeed="15.12" duration="144.00" routeLength="1738.37" waitingTime="15.00" waitingCount="2" stopTime="0.00" timeLoss="34.72" rerouteNo="0" devices="tripinfo_Pepoli_11_8_x7" vType="passenger2a" speedFactor="1.15" vaporized=""/>
    <tripinfo id="Pepoli_11_17_x7" depart="29.00" departLane="210_1" departPos="0.00" departSpeed="0.00" departDelay="0.00" arrival="158.00" arrivalLane="114_1" arrivalPos="692.70" arrivalSpeed="16.11" duration="129.00" routeLength="1735.41" waitingTime="2.00" waitingCount="1" stopTime="0.00" timeLoss="21.73" rerouteNo="0" devices="tripinfo_Pepoli_11_17_x7" vType="passenger2a" speedFactor="1.17" vaporized=""/>
    <tripinfo id="Togliatti_3_18_x7" depart="25.00" departLane="85_0" departPos="0.00" departSpeed="0.00" departDelay="0.00" arrival="160.00" arrivalLane="14_0" arrivalPos="77.26" arrivalSpeed="13.22" duration="135.00" routeLength="1110.28" waitingTime="27.00" waitingCount="3" stopTime="0.00" timeLoss="54.51" rerouteNo="0" devices="tripinfo_Togliatti_3_18_x7" vType="passenger5" speedFactor="1.02" vaporized=""/>
    <tripinfo id="Costa_3_33_x7" depart="86.00" departLane="78[0]_0" departPos="0.00" departSpeed="0.00" departDelay="0.00" arrival="162.00" arrivalLane="14_0" arrivalPos="77.26" arrivalSpeed="15.70" duration="76.00" routeLength="850.23" waitingTime="2.00" waitingCount="1" stopTime="0.00" timeLoss="22.54" rerouteNo="0" devices="tripinfo_Costa_3_33_x7" vType="passenger1" speedFactor="1.18" vaporized=""/>
    <tripinfo id="Pepoli_11_5_x7" depart="8.00" departLane="210_1" departPos="0.00" departSpeed="0.00" departDelay="0.00" arrival="168.00" arrivalLane="114_0" arrivalPos="692.70" arrivalSpeed="12.73" duration="160.00" routeLength="1738.37" waitingTime="15.00" waitingCount="2" stopTime="0.00" timeLoss="35.36" rerouteNo="0" devices="tripinfo_Pepoli_11_5_x7" vType="passenger1" speedFactor="1.01" vaporized=""/>
    <tripinfo id="Costa_12_7_x7" depart="18.00" departLane="78[0]_0" departPos="0.00" departSpeed="0.00" departDelay="0.00" arrival="168.00" arrivalLane="136_0" arrivalPos="186.20" arrivalSpeed="12.55" duration="150.00" routeLength="1416.45" waitingTime="14.00" waitingCount="2" stopTime="0.00" timeLoss="38.50" rerouteNo="0" devices="tripinfo_Costa_12_7_x7" vType="passenger2a" speedFactor="0.94" vaporized=""/>
    <tripinfo id="Costa_12_13_x7" depart="33.00" departLane="78[0]_0" departPos="0.00" departSpeed="0.00" departDelay="0.00" arrival="169.00" arrivalLane="136_0" arrivalPos="186.20" arrivalSpeed="13.67" duration="136.00" routeLength="1413.62" waitingTime="12.00" waitingCount="2" stopTime="0.00" timeLoss="41.42" rerouteNo="0" devices="tripinfo_Costa_12_13_x7" vType="passenger5" speedFactor="1.10" vaporized=""/>
    <tripinfo id="Pepoli_3_0_x7" depart="0.00" departLane="210_2" departPos="0.00" departSpeed="0.00" departDelay="0.00" arrival="171.00" arrivalLane="14_0" arrivalPos="77.26" arrivalSpeed="12.89" duration="171.00" routeLength="1941.55" waitingTime="9.00" waitingCount="1" stopTime="0.00" timeLoss="29.71" rerouteNo="0" devices="tripinfo_Pepoli_3_0_x7" vType="ignoring2b" speedFactor="1.00" vaporized=""/>
    <tripinfo id="Costa_12_14_x7" depart="36.00" departLane="78[0]_0" departPos="0.00" departSpeed="0.00" departDelay="0.00" arrival="172.00" arrivalLane="136_0" arrivalPos="186.20" arrivalSpeed="12.89" duration="136.00" routeLength="1416.45" waitingTime="4.00" waitingCount="2" stopTime="0.00" timeLoss="31.04" rerouteNo="0" devices="tripinfo_Costa_12_14_x7" vType="passenger1" speedFactor="1.00" vaporized=""/>
    <tripinfo id="bus_81_0" depart="4.00" departLane="55_0" departPos="0.00" departSpeed="0.00" departDelay="4.00" arrival="173.00" arrivalLane="114_0" arrivalPos="692.70" arrivalSpeed="13.79" duration="169.00" routeLength="1058.08" waitingTime="26.00" waitingCount="2" stopTime="40.00" timeLoss="52.74" rerouteNo="0" devices="tripinfo_bus_81_0" vType="bus" speedFactor="1.00" vaporized=""/>
    <tripinfo id="Pepoli_3_2_x7" depart="3.00" departLane="210_2" departPos="0.00" departSpeed="0.00" departDelay="0.00" arrival="173.00" arrivalLane="14_0" arrivalPos="77.26" arrivalSpeed="13.22" duration="170.00" routeLength="1941.55" waitingTime="6.00" waitingCount="1" stopTime="0.00" timeLoss="28.10" rerouteNo="0" devices="tripinfo_Pepoli_3_2_x7" vType="ignoring2b" speedFactor="1.00" vaporized=""/>
    <tripinfo id="Togliatti_2_40_x7" depart="56.00" departLane="85_0" departPos="0.00" departSpeed="0.00" departDelay="0.00" arrival="174.00" arrivalLane="77[1][1]_0" arrivalPos="463.98" arrivalSpeed="12.77" duration="118.00" routeLength="1145.48" waitingTime="10.00" waitingCount="1" stopTime="0.00" timeLoss="28.79" rerouteNo="0" devices="tripinfo_Togliatti_2_40_x7" vType="passenger1" speedFactor="0.95" vaporized=""/>
    <tripinfo id="bus_13_0" depart="0.00" departLane="55_0" departPos="0.00" departSpeed="0.00" departDelay="0.00" arrival="175.00" arrivalLane="114_1" arrivalPos="692.70" arrivalSpeed="13.31" duration="175.00" routeLength="1058.08" waitingTime="33.00" waitingCount="1" stopTime="40.00" timeLoss="58.13" rerouteNo="0" devices="tripinfo_bus_13_0" vType="bus" speedFactor="1.00" vaporized=""/>
    <tripinfo id="Pepoli_11_9_x7" depart="16.00" departLane="210_1" departPos="0.00" departSpeed="0.00" departDelay="1.00" arrival="176.00" arrivalLane="114_2" arrivalPos="692.70" arrivalSpeed="12.55" duration="160.00" routeLength="1738.37" waitingTime="5.00" waitingCount="2" stopTime="0.00" timeLoss="34.10" rerouteNo="0" devices="tripinfo_Pepoli_11_9_x7" vType="passenger2a" speedFactor="0.99" vaporized=""/>
    <tripinfo id="Togliatti_2_45_x7" depart="64.00" departLane="85_0" departPos="0.00" departSpeed="0.00" departDelay="0.00" arrival="176.00" arrivalLane="77[1][1]_0" arrivalPos="463.98" arrivalSpeed="16.07" duration="112.00" routeLength="1145.48" waitingTime="10.00" waitingCount="1" stopTime="0.00" timeLoss="39.50" rerouteNo="0" devices="tripinfo_Togliatti_2_45_x7" vType="passenger1" speedFactor="1.18" vaporized=""/>
    <tripinfo id="Vittorio_Veneto_2_1_x7" depart="4.00" departLane="224[0]_0" departPos="0.00" departSpeed="0.00" departDelay="0.00" arrival="179.00" arrivalLane="77[1][1]_0" arrivalPos="463.98" arrivalSpeed="13.15" duration="175.00" routeLength="1629.80" waitingTime="26.00" waitingCount="3" stopTime="0.00" timeLoss="53.94" rerouteNo="0" devices="tripinfo_Vittorio_Veneto_2_1_x7" vType="passenger1" speedFactor="0.99" vaporized=""/>
    <tripinfo id="Togliatti_12_59_x7" depart="84.00" departLane="85_2" departPos="0.00" departSpeed="0.00" departDelay="0.00" arrival="179.00" arrivalLane="136_0" arrivalPos="186.20" arrivalSpeed="13.67" duration="95.00" routeLength="909.95" waitingTime="18.00" waitingCount="1" stopTime="0.00" timeLoss="32.20" rerouteNo="0" devices="tripinfo_Togliatti_12_59_x7" vType="passenger1" speedFactor="1.07" vaporized=""/>
    <tripinfo id="Pepoli_11_3_x7" depart="5.00" departLane="210_1" departPos="0.00" departSpeed="0.00" departDelay="0.00" arrival="181.00" arrivalLane="114_1" arrivalPos="692.70" arrivalSpeed="11.73" duration="176.00" routeLength="1738.37" waitingTime="16.00" waitingCount="3" stopTime="0.00" timeLoss="42.69" rerouteNo="0" devices="tripinfo_Pepoli_11_3_x7" vType="passenger2b" speedFactor="0.94" vaporized=""/>
    <tripinfo id="bus_91_0" depart="8.00" departLane="55_0" departPos="0.00" departSpeed="0.00" departDelay="8.00" arrival="182.00" arrivalLane="114_0" arrivalPos="692.70" arrivalSpeed="13.14" duration="174.00" routeLength="1058.08" waitingTime="21.00" waitingCount="2" stopTime="40.00" timeLoss="57.81" rerouteNo="0" devices="tripinfo_bus_91_0" vType="bus" speedFactor="1.00" vaporized=""/>
    <tripinfo id="Vittorio_Veneto_1_12_x7" depart="55.00" departLane="224[0]_0" departPos="0.00" departSpeed="0.00" departDelay="0.00" arrival="184.00" arrivalLane="86_0" arrivalPos="321.19" arrivalSpeed="15.79" duration="129.00" routeLength="1143.28" waitingTime="33.00" waitingCount="2" stopTime="0.00" timeLoss="55.69" rerouteNo="0" devices="tripinfo_Vittorio_Veneto_1_12_x7" vType="passenger3" speedFactor="1.14" vaporized=""/>
    <tripinfo id="Pepoli_8_51_x7" depart="87.00" departLane="210_0" departPos="0.00" departSpeed="0.00" departDelay="0.00" arrival="184.00" arrivalLane="134b_0" arrivalPos="156.17" arrivalSpeed="12.19" duration="97.00" routeLength="692.71" waitingTime="24.00" waitingCount="2" stopTime="0.00" timeLoss="40.24" rerouteNo="0" devices="tripinfo_Pepoli_8_51_x7" vType="passenger1" speedFactor="0.91" vaporized=""/>
    <tripinfo id="Silvani_11_27_x7" depart="63.00" departLane="203[0]_0" departPos="0.00" departSpeed="0.00" departDelay="0.00" arrival="185.00" arrivalLane="114_1" arrivalPos="692.70" arrivalSpeed="15.20" duration="122.00" routeLength="1114.25" waitingTime="36.00" waitingCount="1" stopTime="0.00" timeLoss="48.01" rerouteNo="0" devices="tripinfo_Silvani_11_27_x7" vType="passenger1" speedFactor="1.10" vaporized=""/>
    <tripinfo id="Togliatti_12_79_x7" depart="112.00" departLane="85_2" departPos="0.00" departSpeed="0.00" departDelay="0.00" arrival="185.00" arrivalLane="136_0" arrivalPos="186.20" arrivalSpeed="14.75" duration="73.00" routeLength="909.95" waitingTime="0.00" waitingCount="0" stopTime="0.00" timeLoss="10.63" rerouteNo="0" devices="tripinfo_Togliatti_12_79_x7" vType="passenger5" speedFactor="1.07" vaporized=""/>
    <tripinfo id="XXI_Aprile_7_0_x7" depart="0.00" departLane="8_0" departPos="0.00" departSpeed="0.00" departDelay="0.00" arrival="186.00" arrivalLane="209_0" arrivalPos="395.59" arrivalSpeed="12.82" duration="186.00" routeLength="2111.89" waitingTime="0.00" waitingCount="0" stopTime="0.00" timeLoss="27.78" rerouteNo="0" devices="tripinfo_XXI_Aprile_7_0_x7" vType="passenger2b" speedFactor="1.00" vaporized=""/>
    <tripinfo id="Vittorio_Veneto_1_14_x7" depart="64.00" departLane="224[0]_0" departPos="0.00" departSpeed="0.00" departDelay="0.00" arrival="186.00" arrivalLane="86_1" arrivalPos="321.19" arrivalSpeed="15.20" duration="122.00" routeLength="1143.28" waitingTime="20.00" waitingCount="2" stopTime="0.00" timeLoss="47.74" rerouteNo="0" devices="tripinfo_Vittorio_Veneto_1_14_x7" vType="passenger1" speedFactor="1.13" vaporized=""/>
    <tripinfo id="XXI_Aprile_7_1_x7" depart="3.00" departLane="8_0" departPos="0.00" departSpeed="0.00" departDelay="0.00" arrival="187.00" arrivalLane="209_1" arrivalPos="395.59" arrivalSpeed="13.25" duration="184.00" routeLength="2111.89" waitingTime="0.00" waitingCount="0" stopTime="0.00" timeLoss="33.03" rerouteNo="0" devices="tripinfo_XXI_Aprile_7_1_x7" vType="passenger1" speedFactor="1.05" vaporized=""/>
    <tripinfo id="Vittorio_Veneto_2_6_x7" depart="27.00" departLane="224[0]_0" departPos="0.00" departSpeed="0.00" departDelay="0.00" arrival="189.00" arrivalLane="77[1][1]_0" arrivalPos="463.98" arrivalSpeed="11.63" duration="162.00" routeLength="1629.80" waitingTime="4.00" waitingCount="1" stopTime="0.00" timeLoss="25.57" rerouteNo="0" devices="tripinfo_Vittorio_Veneto_2_6_x7" vType="passenger4" speedFactor="0.88" vaporized=""/>
    <tripinfo id="Pepoli_10_22_x7" depart="37.00" departLane="210_1" departPos="0.00" departSpeed="0.00" departDelay="0.00" arrival="189.00" arrivalLane="204[1][1]_0" arrivalPos="435.51" arrivalSpeed="13.81" duration="152.00" routeLength="1470.66" waitingTime="23.00" waitingCount="2" stopTime="0.00" timeLoss="45.78" rerouteNo="0" devices="tripinfo_Pepoli_10_22_x7" vType="passenger5" speedFactor="1.00" vaporized=""/>
    <tripinfo id="Vittorio_Veneto_1_10_x7" depart="45.00" departLane="224[0]_0" departPos="0.00" departSpeed="0.00" departDelay="0.00" arrival="189.00" arrivalLane="86_0" arrivalPos="321.19" arrivalSpeed="11.86" duration="144.00" routeLength="1143.28" waitingTime="34.00" waitingCount="2" stopTime="0.00" timeLoss="50.39" rerouteNo="0" devices="tripinfo_Vittorio_Veneto_1_10_x7" vType="passenger2b" speedFactor="0.90" vaporized=""/>
    <tripinfo id="Silvani_11_34_x7" depart="80.00" departLane="203[0]_0" departPos="0.00" departSpeed="0.00" departDelay="0.00" arrival="189.00" arrivalLane="114_0" arrivalPos="692.70" arrivalSpeed="14.61" duration="109.00" routeLength="1114.25" waitingTime="21.00" waitingCount="1" stopTime="0.00" timeLoss="32.55" rerouteNo="0" devices="tripinfo_Silvani_11_34_x7" vType="passenger1" speedFactor="1.06" vaporized=""/>
    <tripinfo id="Pepoli_10_27_x7" depart="46.00" departLane="210_0" departPos="0.00" departSpeed="0.00" departDelay="0.00" arrival="190.00" arrivalLane="204[1][1]_2" arrivalPos="435.51" arrivalSpeed="13.32" duration="144.00" routeLength="1470.66" waitingTime="19.00" waitingCount="2" stopTime="0.00" timeLoss="39.76" rerouteNo="0" devices="tripinfo_Pepoli_10_27_x7" vType="passenger1" speedFactor="1.02" vaporized=""/>
    <tripinfo id="Pepoli_10_34_x7" depart="58.00" departLane="210_1" departPos="0.00" departSpeed="0.00" departDelay="0.00" arrival="190.00" arrivalLane="204[1][1]_1" arrivalPos="435.51" arrivalSpeed="14.26" duration="132.00" routeLength="1470.66" waitingTime="1.00" waitingCount="1" stopTime="0.00" timeLoss="29.60" rerouteNo="0" devices="tripinfo_Pepoli_10_34_x7" vType="passenger1" speedFactor="1.03" vaporized=""/>
    <tripinfo id="Vittorio_Veneto_1_13_x7" depart="59.00" departLane="224[0]_0" departPos="0.00" departSpeed="0.00" departDelay="0.00" arrival="190.00" arrivalLane="86_1" arrivalPos="321.19" arrivalSpeed="13.15" duration="131.00" routeLength="1143.28" waitingTime="24.00" waitingCount="2" stopTime="0.00" timeLoss="44.49" rerouteNo="0" devices="tripinfo_Vittorio_Veneto_1_13_x7" vType="passenger1" speedFactor="0.98" vaporized=""/>
    <tripinfo id="Silvani_11_39_x7" depart="92.00" departLane="203[0]_0" departPos="0.00" departSpeed="0.00" departDelay="0.00" arrival="191.00" arrivalLane="114_0" arrivalPos="692.70" arrivalSpeed="14.70" duration="99.00" routeLength="1114.25" waitingTime="7.00" waitingCount="1" stopTime="0.00" timeLoss="22.66" rerouteNo="0" devices="tripinfo_Silvani_11_39_x7" vType="passenger1" speedFactor="1.06" vaporized=""/>
    <tripinfo id="Pepoli_3_12_x7" depart="20.00" departLane="210_2" departPos="0.00" departSpeed="0.00" departDelay="0.00" arrival="193.00" arrivalLane="14_0" arrivalPos="77.26" arrivalSpeed="12.93" duration="173.00" routeLength="1941.55" waitingTime="10.00" waitingCount="1" stopTime="0.00" timeLoss="31.42" rerouteNo="0" devices="tripinfo_Pepoli_3_12_x7" vType="ignoring5" speedFactor="1.00" vaporized=""/>
    <tripinfo id="Vittorio_Veneto_1_23_x7" depart="105.00" departLane="224[0]_0" departPos="0.00" departSpeed="0.00" departDelay="0.00" arrival="193.00" arrivalLane="86_0" arrivalPos="321.19" arrivalSpeed="14.27" duration="88.00" routeLength="1143.28" waitingTime="0.00" waitingCount="0" stopTime="0.00" timeLoss="9.05" rerouteNo="0" devices="tripinfo_Vittorio_Veneto_1_23_x7" vType="passenger1" speedFactor="1.07" vaporized=""/>
    <tripinfo id="Silvani_11_41_x7" depart="96.00" departLane="203[0]_0" departPos="0.00" departSpeed="0.00" departDelay="0.00" arrival="194.00" arrivalLane="114_0" arrivalPos="692.70" arrivalSpeed="13.84" duration="98.00" routeLength="1114.25" waitingTime="4.00" waitingCount="1" stopTime="0.00" timeLoss="19.27" rerouteNo="0" devices="tripinfo_Silvani_11_41_x7" vType="passenger2b" speedFactor="1.03" vaporized=""/>
    <tripinfo id="Pepoli_3_14_x7" depart="24.00" departLane="210_2" departPos="0.00" departSpeed="0.00" departDelay="0.00" arrival="195.00" arrivalLane="14_0" arrivalPos="77.26" arrivalSpeed="12.66" duration="171.00" routeLength="1941.55" waitingTime="8.00" waitingCount="1" stopTime="0.00" timeLoss="28.77" rerouteNo="0" devices="tripinfo_Pepoli_3_14_x7" vType="ignoring3" speedFactor="1.00" vaporized=""/>
    <tripinfo id="Togliatti_2_47_x7" depart="66.00" departLane="85_0" departPos="0.00" departSpeed="0.00" departDelay="0.00" arrival="195.00" arrivalLane="77[1][1]_0" arrivalPos="463.98" arrivalSpeed="13.41" duration="129.00" routeLength="1145.48" waitingTime="27.00" waitingCount="2" stopTime="0.00" timeLoss="47.10" rerouteNo="0" devices="tripinfo_Togliatti_2_47_x7" vType="passenger2b" speedFactor="1.03" vaporized=""/>
    <tripinfo id="Silvani_7_4_x7" depart="9.00" departLane="203[0]_0" departPos="0.00" departSpeed="0.00" departDelay="0.00" arrival="196.00" arrivalLane="209_0" arrivalPos="395.59" arrivalSpeed="14.12" duration="187.00" routeLength="1454.90" waitingTime="57.00" waitingCount="4" stopTime="0.00" timeLoss="85.30" rerouteNo="0" devices="tripinfo_Silvani_7_4_x7" vType="passenger1" speedFactor="1.03" vaporized=""/>
    <tripinfo id="Turati_3_3_x7" depart="104.00" departLane="195_0" departPos="0.00" departSpeed="0.00" departDelay="0.00" arrival="197.00" arrivalLane="14_0" arrivalPos="77.26" arrivalSpeed="13.30" duration="93.00" routeLength="947.57" waitingTime="6.00" waitingCount="1" stopTime="0.00" timeLoss="23.25" rerouteNo="0" devices="tripinfo_Turati_3_3_x7" vType="ignoring3" speedFactor="1.00" vaporized=""/>
    <tripinfo id="Silvani_7_21_x7" depart="49.00" departLane="203[0]_0" departPos="0.00" departSpeed="0.00" departDelay="0.00" arrival="198.00" arrivalLane="209_1" arrivalPos="395.59" arrivalSpeed="12.97" duration="149.00" routeLength="1454.90" waitingTime="20.00" waitingCount="2" stopTime="0.00" timeLoss="41.14" rerouteNo="0" devices="tripinfo_Silvani_7_21_x7" vType="passenger2b" speedFactor="0.98" vaporized=""/>