<?xml version="1.0" encoding="UTF-8"?>

<!-- generated on 2025-10-20 17:21:12 by Eclipse SUMO libsumo Version 1.24.0
<libsumoConfiguration xmlns:xsi="http://www.w3.org/2001/XMLSchema-instance" xsi:noNamespaceSchemaLocation="http://sumo.dlr.de/xsd/libsumoConfiguration.xsd">

    <input>
        <net-file value="/home/julesbompard/Documents/Projets/sumo-experiments/src/sumo_experiments/preset_networks/bologna/acosta/acosta_buslanes.net.xml"/>
        <route-files value="/home/julesbompard/Documents/Projets/sumo-experiments/src/sumo_experiments/preset_networks/bologna/acosta/acosta_96100.rou.xml,/home/julesbompard/Documents/Projets/sumo-experiments/src/sumo_experiments/preset_networks/bologna/acosta/acosta_busses.rou.xml"/>
        <additional-files value="/home/julesbompard/Documents/Projets/sumo-experiments/src/sumo_experiments/preset_networks/bologna/acosta/acosta_tls.add.xml,/home/julesbompard/Documents/Projets/sumo-experiments/src/sumo_experiments/preset_networks/bologna/acosta/acosta_vtypes.add.xml,/home/julesbompard/Documents/Projets/sumo-experiments/src/sumo_experiments/preset_networks/bologna/acosta/acosta_detectors.add.xml,/home/julesbompard/Documents/Projets/sumo-experiments/src/sumo_experiments/preset_networks/bologna/acosta/acosta_bus_stops.add.xml"/>
    </input>

    <output>
        <tripinfo-output value="/home/julesbompard/Documents/Projets/sumo-experiments/src/sumo_experiments/preset_networks/bologna/acosta/tripinfos.xml"/>
    </output>

    <processing>
        <threads value="8"/>
        <time-to-teleport value="150"/>
    </processing>

    <report>
        <no-warnings value="true"/>
        <log value="/home/julesbompard/Documents/Projets/sumo-experiments/src/sumo_experiments/preset_networks/bologna/acosta/sumo_log.txt"/>
        <no-step-log value="true"/>
    </report>

    <random_number>
        <random value="true"/>
    </random_number>

    <gui_only>
        <gui-settings-file value="/home/julesbompard/Documents/Projets/sumo-experiments/src/sumo_experiments/preset_networks/bologna/acosta/settings.gui.xml"/>
    </gui_only>

</libsumoConfiguration>
-->

<tripinfos xmlns:xsi="http://www.w3.org/2001/XMLSchema-instance" xsi:noNamespaceSchemaLocation="http://sumo.dlr.de/xsd/tripinfo_file.xsd">
    <tripinfo id="Audinot_7_0_x7" depart="0.00" departLane="131_0" departPos="0.00" departSpeed="0.00" departDelay="0.00" arrival="73.00" arrivalLane="209_0" arrivalPos="395.59" arrivalSpeed="13.94" duration="73.00" routeLength="873.23" waitingTime="0.00" waitingCount="0" stopTime="0.00" timeLoss="11.42" rerouteNo="0" devices="tripinfo_Audinot_7_0_x7" vType="passenger1" speedFactor="1.06" vaporized=""/>
    <tripinfo id="Togliatti_12_15_x7" depart="21.00" departLane="85_2" departPos="0.00" departSpeed="0.00" departDelay="0.00" arrival="94.00" arrivalLane="136_0" arrivalPos="186.20" arrivalSpeed="14.74" duration="73.00" routeLength="909.95" waitingTime="0.00" waitingCount="0" stopTime="0.00" timeLoss="12.84" rerouteNo="0" devices="tripinfo_Togliatti_12_15_x7" vType="passenger2b" speedFactor="1.12" vaporized=""/>
    <tripinfo id="Audinot_10_2_x7" depart="42.00" departLane="131_0" departPos="0.00" departSpeed="0.00" departDelay="0.00" arrival="100.00" arrivalLane="46_2" arrivalPos="52.90" arrivalSpeed="8.25" duration="58.00" routeLength="650.11" waitingTime="0.00" waitingCount="0" stopTime="0.00" timeLoss="13.62" rerouteNo="0" devices="tripinfo_Audinot_10_2_x7" vType="passenger2b" speedFactor="1.10" vaporized="traci"/>
    <tripinfo id="Costa_12_0_x7" depart="0.00" departLane="78[0]_0" departPos="0.00" departSpeed="0.00" departDelay="0.00" arrival="100.00" arrivalLane="180_0" arrivalPos="203.39" arrivalSpeed="8.86" duration="100.00" routeLength="1213.10" waitingTime="0.00" waitingCount="0" stopTime="0.00" timeLoss="11.54" rerouteNo="0" devices="tripinfo_Costa_12_0_x7" vType="passenger2b" speedFactor="1.02" vaporized="traci"/>
    <tripinfo id="Costa_12_11_x7" depart="28.00" departLane="78[0]_0" departPos="0.00" departSpeed="0.00" departDelay="0.00" arrival="100.00" arrivalLane="68_0" arrivalPos="57.82" arrivalSpeed="12.88" duration="72.00" routeLength="778.35" waitingTime="0.00" waitingCount="0" stopTime="0.00" timeLoss="14.24" rerouteNo="0" devices="tripinfo_Costa_12_11_x7" vType="passenger1" speedFactor="1.01" vaporized="traci"/>
    <tripinfo id="Costa_12_13_x7" depart="33.00" departLane="78[0]_0" departPos="0.00" departSpeed="0.00" departDelay="0.00" arrival="100.00" arrivalLane="79_0" arrivalPos="150.49" arrivalSpeed="10.84" duration="67.00" routeLength="690.09" waitingTime="0.00" waitingCount="0" stopTime="0.00" timeLoss="17.94" rerouteNo="0" devices="tripinfo_Costa_12_13_x7" vType="passenger3" speedFactor="1.06" vaporized="traci"/>
    <tripinfo id="Costa_12_14_x7" depart="36.00" departLane="78[0]_0" departPos="0.00" departSpeed="0.00" departDelay="0.00" arrival="100.00" arrivalLane="79_0" arrivalPos="131.22" arrivalSpeed="10.68" duration="64.00" routeLength="667.99" waitingTime="0.00" waitingCount="0" stopTime="0.00" timeLoss="19.87" rerouteNo="0" devices="tripinfo_Costa_12_14_x7" vType="passenger1" speedFactor="1.14" vaporized="traci"/>
    <tripinfo id="Costa_12_18_x7" depart="47.00" departLane="78[0]_0" departPos="0.00" departSpeed="0.00" departDelay="0.00" arrival="100.00" arrivalLane="79_0" arrivalPos="34.82" arrivalSpeed="12.09" duration="53.00" routeLength="574.42" waitingTime="0.00" waitingCount="0" stopTime="0.00" timeLoss="6.79" rerouteNo="0" devices="tripinfo_Costa_12_18_x7" vType="passenger1" speedFactor="0.93" vaporized="traci"/>
    <tripinfo id="Costa_12_1_x7" depart="7.00" departLane="78[0]_0" departPos="0.00" departSpeed="0.00" departDelay="5.00" arrival="100.00" arrivalLane=":9_8_0" arrivalPos="35.44" arrivalSpeed="11.72" duration="93.00" routeLength="870.27" waitingTime="18.00" waitingCount="1" stopTime="0.00" timeLoss="31.78" rerouteNo="0" devices="tripinfo_Costa_12_1_x7" vType="passenger2b" speedFactor="1.05" vaporized="traci"/>
    <tripinfo id="Costa_12_23_x7" depart="60.00" departLane="78[0]_0" departPos="0.00" departSpeed="0.00" departDelay="0.00" arrival="100.00" arrivalLane=":20b_0_1" arrivalPos="3.16" arrivalSpeed="9.70" duration="40.00" routeLength="468.27" waitingTime="0.00" waitingCount="0" stopTime="0.00" timeLoss="7.77" rerouteNo="0" devices="tripinfo_Costa_12_23_x7" vType="passenger3" speedFactor="1.09" vaporized="traci"/>
    <tripinfo id="Costa_12_24_x7" depart="63.00" departLane="78[0]_0" departPos="0.00" departSpeed="0.00" departDelay="1.00" arrival="100.00" arrivalLane="56b_0" arrivalPos="7.70" arrivalSpeed="10.10" duration="37.00" routeLength="456.69" waitingTime="0.00" waitingCount="0" stopTime="0.00" timeLoss="5.07" rerouteNo="0" devices="tripinfo_Costa_12_24_x7" vType="passenger3" speedFactor="1.06" vaporized="traci"/>
    <tripinfo id="Costa_12_7_x7" depart="19.00" departLane="78[0]_0" departPos="0.00" departSpeed="0.00" departDelay="1.00" arrival="100.00" arrivalLane=":9_8_0" arrivalPos="13.70" arrivalSpeed="8.17" duration="81.00" routeLength="848.53" waitingTime="4.00" waitingCount="1" stopTime="0.00" timeLoss="18.97" rerouteNo="0" devices="tripinfo_Costa_12_7_x7" vType="passenger5" speedFactor="1.02" vaporized="traci"/>
    <tripinfo id="Costa_12_9_x7" depart="24.00" departLane="78[0]_0" departPos="0.00" departSpeed="0.00" departDelay="1.00" arrival="100.00" arrivalLane=":23_3_0" arrivalPos="18.60" arrivalSpeed="10.32" duration="76.00" routeLength="709.10" waitingTime="0.00" waitingCount="0" stopTime="0.00" timeLoss="10.72" rerouteNo="0" devices="tripinfo_Costa_12_9_x7" vType="passenger2b" speedFactor="0.81" vaporized="traci"/>
    <tripinfo id="Costa_1_19_x7" depart="49.00" departLane="78[0]_0" departPos="0.00" departSpeed="0.00" departDelay="0.00" arrival="100.00" arrivalLane=":40_2_0" arrivalPos="8.97" arrivalSpeed="10.64" duration="51.00" routeLength="517.48" waitingTime="0.00" waitingCount="0" stopTime="0.00" timeLoss="7.19" rerouteNo="0" devices="tripinfo_Costa_1_19_x7" vType="passenger2b" speedFactor="0.89" vaporized="traci"/>
    <tripinfo id="Costa_1_2_x7" depart="9.00" departLane="78[0]_0" departPos="0.00" departSpeed="0.00" departDelay="4.00" arrival="100.00" arrivalLane=":9_17_0" arrivalPos="12.73" arrivalSpeed="9.46" duration="91.00" routeLength="862.65" waitingTime="5.00" waitingCount="1" stopTime="0.00" timeLoss="19.27" rerouteNo="0" devices="tripinfo_Costa_1_2_x7" vType="passenger3" speedFactor="0.89" vaporized="traci"/>
    <tripinfo id="Costa_1_4_x7" depart="12.00" departLane="78[0]_0" departPos="0.00" departSpeed="0.00" departDelay="2.00" arrival="100.00" arrivalLane="86_2" arrivalPos="0.77" arrivalSpeed="9.46" duration="88.00" routeLength="862.13" waitingTime="5.00" waitingCount="1" stopTime="0.00" timeLoss="23.13" rerouteNo="0" devices="tripinfo_Costa_1_4_x7" vType="passenger1" speedFactor="0.99" vaporized="traci"/>
    <tripinfo id="Costa_200_25_x7" depart="66.00" departLane="78[0]_0" departPos="0.00" departSpeed="0.00" departDelay="1.00" arrival="100.00" arrivalLane=":45_0_0" arrivalPos="1.19" arrivalSpeed="13.07" duration="34.00" routeLength="414.89" waitingTime="0.00" waitingCount="0" stopTime="0.00" timeLoss="3.93" rerouteNo="0" devices="tripinfo_Costa_200_25_x7" vType="passenger2a" speedFactor="1.03" vaporized="traci"/>
    <tripinfo id="Costa_3_33_x7" depart="86.00" departLane="78[0]_0" departPos="0.00" departSpeed="0.00" departDelay="0.00" arrival="100.00" arrivalLane="78[0]_0" arrivalPos="132.73" arrivalSpeed="11.98" duration="14.00" routeLength="132.73" waitingTime="0.00" waitingCount="0" stopTime="0.00" timeLoss="2.70" rerouteNo="0" devices="tripinfo_Costa_3_33_x7" vType="passenger3" speedFactor="0.93" vaporized="traci"/>
    <tripinfo id="Costa_50_20_x7" depart="52.00" departLane="78[0]_0" departPos="0.00" departSpeed="0.00" departDelay="0.00" arrival="100.00" arrivalLane="21b_0" arrivalPos="20.67" arrivalSpeed="10.33" duration="48.00" routeLength="493.10" waitingTime="0.00" waitingCount="0" stopTime="0.00" timeLoss="7.09" rerouteNo="0" devices="tripinfo_Costa_50_20_x7" vType="passenger1" speedFactor="0.91" vaporized="traci"/>
    <tripinfo id="Costa_50_22_x7" depart="57.00" departLane="78[0]_0" departPos="0.00" departSpeed="0.00" departDelay="0.00" arrival="100.00" arrivalLane=":21m_1_0" arrivalPos="5.76" arrivalSpeed="6.36" duration="43.00" routeLength="471.00" waitingTime="0.00" waitingCount="0" stopTime="0.00" timeLoss="8.51" rerouteNo="0" devices="tripinfo_Costa_50_22_x7" vType="passenger1" speedFactor="1.05" vaporized="traci"/>
    <tripinfo id="Costa_50_32_x7" depart="83.00" departLane="78[0]_0" departPos="0.00" departSpeed="0.00" departDelay="0.00" arrival="100.00" arrivalLane="78[0]_0" arrivalPos="157.30" arrivalSpeed="12.18" duration="17.00" routeLength="157.30" waitingTime="0.00" waitingCount="0" stopTime="0.00" timeLoss="3.64" rerouteNo="0" devices="tripinfo_Costa_50_32_x7" vType="passenger2b" speedFactor="0.92" vaporized="traci"/>
    <tripinfo id="Costa_50_36_x7" depart="94.00" departLane="78[0]_0" departPos="0.00" departSpeed="0.00" departDelay="0.00" arrival="100.00" arrivalLane="78[0]_0" arrivalPos="21.46" arrivalSpeed="7.81" duration="6.00" routeLength="21.46" waitingTime="0.00" waitingCount="0" stopTime="0.00" timeLoss="3.44" rerouteNo="0" devices="tripinfo_Costa_50_36_x7" vType="passenger2b" speedFactor="0.99" vaporized="traci"/>
    <tripinfo id="Costa_50_6_x7" depart="16.00" departLane="78[0]_0" departPos="0.00" departSpeed="0.00" departDelay="1.00" arrival="100.00" arrivalLane="16_0" arrivalPos="0.16" arrivalSpeed="6.21" duration="84.00" routeLength="767.92" waitingTime="11.00" waitingCount="2" stopTime="0.00" timeLoss="32.05" rerouteNo="0" devices="tripinfo_Costa_50_6_x7" vType="passenger1" speedFactor="1.12" vaporized="traci"/>
    <tripinfo id="Costa_50_8_x7" depart="21.00" departLane="78[0]_0" departPos="0.00" departSpeed="0.00" departDelay="1.00" arrival="100.00" arrivalLane=":12_2_0" arrivalPos="4.28" arrivalSpeed="3.41" duration="79.00" routeLength="755.12" waitingTime="4.00" waitingCount="1" stopTime="0.00" timeLoss="17.63" rerouteNo="0" devices="tripinfo_Costa_50_8_x7" vType="passenger2b" speedFactor="0.93" vaporized="traci"/>
    <tripinfo id="Costa_700_16_x7" depart="41.00" departLane="78[0]_0" departPos="0.00" departSpeed="0.00" departDelay="0.00" arrival="100.00" arrivalLane="189[1][1]_0" arrivalPos="81.57" arrivalSpeed="14.53" duration="59.00" routeLength="726.22" waitingTime="0.00" waitingCount="0" stopTime="0.00" timeLoss="8.34" rerouteNo="0" devices="tripinfo_Costa_700_16_x7" vType="passenger2b" speedFactor="1.07" vaporized="traci"/>
    <tripinfo id="Costa_700_30_x7" depart="78.00" departLane="78[0]_0" departPos="0.00" departSpeed="0.00" departDelay="0.00" arrival="100.00" arrivalLane="78[0]_0" arrivalPos="233.52" arrivalSpeed="12.52" duration="22.00" routeLength="233.52" waitingTime="0.00" waitingCount="0" stopTime="0.00" timeLoss="3.67" rerouteNo="0" devices="tripinfo_Costa_700_30_x7" vType="passenger1" speedFactor="0.97" vaporized="traci"/>
    <tripinfo id="Costa_700_35_x7" depart="92.00" departLane="78[0]_0" departPos="0.00" departSpeed="0.00" departDelay="1.00" arrival="100.00" arrivalLane="78[0]_0" arrivalPos="50.37" arrivalSpeed="11.75" duration="8.00" routeLength="50.37" waitingTime="0.00" waitingCount="0" stopTime="0.00" timeLoss="2.87" rerouteNo="0" devices="tripinfo_Costa_700_35_x7" vType="passenger2b" speedFactor="0.88" vaporized="traci"/>
    <tripinfo id="Costa_70_26_x7" depart="68.00" departLane="78[0]_0" departPos="0.00" departSpeed="0.00" departDelay="1.00" arrival="100.00" arrivalLane="78[0]_0" arrivalPos="390.68" arrivalSpeed="14.72" duration="32.00" routeLength="390.68" waitingTime="0.00" waitingCount="0" stopTime="0.00" timeLoss="4.60" rerouteNo="0" devices="tripinfo_Costa_70_26_x7" vType="passenger1" speedFactor="1.07" vaporized="traci"/>
    <tripinfo id="Costa_70_27_x7" depart="71.00" departLane="78[0]_0" departPos="0.00" departSpeed="0.00" departDelay="1.00" arrival="100.00" arrivalLane="78[0]_0" arrivalPos="364.13" arrivalSpeed="14.56" duration="29.00" routeLength="364.13" waitingTime="0.00" waitingCount="0" stopTime="0.00" timeLoss="4.33" rerouteNo="0" devices="tripinfo_Costa_70_27_x7" vType="passenger1" speedFactor="1.11" vaporized="traci"/>
    <tripinfo id="Costa_70_34_x7" depart="88.00" departLane="78[0]_0" departPos="0.00" departSpeed="0.00" departDelay="0.00" arrival="100.00" arrivalLane="78[0]_0" arrivalPos="80.91" arrivalSpeed="12.30" duration="12.00" routeLength="80.91" waitingTime="0.00" waitingCount="0" stopTime="0.00" timeLoss="4.43" rerouteNo="0" devices="tripinfo_Costa_70_34_x7" vType="passenger2b" speedFactor="0.89" vaporized="traci"/>
    <tripinfo id="Costa_70_37_x7" depart="97.00" departLane="78[0]_0" departPos="0.00" departSpeed="0.00" departDelay="1.00" arrival="100.00" arrivalLane="78[0]_0" arrivalPos="2.97" arrivalSpeed="2.21" duration="3.00" routeLength="2.97" waitingTime="0.00" waitingCount="0" stopTime="0.00" timeLoss="1.77" rerouteNo="0" devices="tripinfo_Costa_70_37_x7" vType="passenger1" speedFactor="0.94" vaporized="traci"/>
    <tripinfo id="Pepoli_10_10_x7" depart="17.00" departLane="210_0" departPos="0.00" departSpeed="0.00" departDelay="0.00" arrival="100.00" arrivalLane="43[1]_0" arrivalPos="67.52" arrivalSpeed="0.00" duration="83.00" routeLength="481.55" waitingTime="39.00" waitingCount="1" stopTime="0.00" timeLoss="48.74" rerouteNo="0" devices="tripinfo_Pepoli_10_10_x7" vType="passenger2b" speedFactor="1.04" vaporized="traci"/>
    <tripinfo id="Pepoli_10_11_x7" depart="19.00" departLane="210_0" departPos="0.00" departSpeed="0.00" departDelay="1.00" arrival="100.00" arrivalLane="43[1]_1" arrivalPos="67.02" arrivalSpeed="0.00" duration="81.00" routeLength="481.05" waitingTime="37.00" waitingCount="1" stopTime="0.00" timeLoss="47.52" rerouteNo="0" devices="tripinfo_Pepoli_10_11_x7" vType="passenger2a" speedFactor="1.07" vaporized="traci"/>
    <tripinfo id="Pepoli_10_18_x7" depart="30.00" departLane="210_0" departPos="0.00" departSpeed="0.00" departDelay="0.00" arrival="100.00" arrivalLane="43[1]_2" arrivalPos="67.02" arrivalSpeed="0.00" duration="70.00" routeLength="481.05" waitingTime="25.00" waitingCount="2" stopTime="0.00" timeLoss="35.04" rerouteNo="0" devices="tripinfo_Pepoli_10_18_x7" vType="passenger1" speedFactor="1.02" vaporized="traci"/>
    <tripinfo id="Pepoli_10_20_x7" depart="34.00" departLane="210_1" departPos="0.00" departSpeed="0.00" departDelay="0.00" arrival="100.00" arrivalLane="43[1]_1" arrivalPos="61.02" arrivalSpeed="0.00" duration="66.00" routeLength="475.05" waitingTime="25.00" waitingCount="1" stopTime="0.00" timeLoss="34.54" rerouteNo="0" devices="tripinfo_Pepoli_10_20_x7" vType="passenger4" speedFactor="1.12" vaporized="traci"/>
    <tripinfo id="Pepoli_10_22_x7" depart="37.00" departLane="210_1" departPos="0.00" departSpeed="0.00" departDelay="0.00" arrival="100.00" arrivalLane="43[1]_2" arrivalPos="60.52" arrivalSpeed="0.00" duration="63.00" routeLength="474.55" waitingTime="21.00" waitingCount="1" stopTime="0.00" timeLoss="30.39" rerouteNo="0" devices="tripinfo_Pepoli_10_22_x7" vType="passenger3" speedFactor="1.08" vaporized="traci"/>
    <tripinfo id="Pepoli_10_27_x7" depart="46.00" departLane="210_1" departPos="0.00" departSpeed="0.00" departDelay="0.00" arrival="100.00" arrivalLane="43[1]_1" arrivalPos="54.51" arrivalSpeed="0.00" duration="54.00" routeLength="468.54" waitingTime="15.00" waitingCount="1" stopTime="0.00" timeLoss="21.97" rerouteNo="0" devices="tripinfo_Pepoli_10_27_x7" vType="passenger3" speedFactor="1.09" vaporized="traci"/>
    <tripinfo id="Pepoli_10_33_x7" depart="56.00" departLane="210_0" departPos="0.00" departSpeed="0.00" departDelay="0.00" arrival="100.00" arrivalLane="43[1]_2" arrivalPos="47.28" arrivalSpeed="0.85" duration="44.00" routeLength="461.31" waitingTime="1.00" waitingCount="1" stopTime="0.00" timeLoss="9.24" rerouteNo="0" devices="tripinfo_Pepoli_10_33_x7" vType="passenger1" speedFactor="0.98" vaporized="traci"/>
    <tripinfo id="Pepoli_10_34_x7" depart="58.00" departLane="210_1" departPos="0.00" departSpeed="0.00" departDelay="0.00" arrival="100.00" arrivalLane="43[1]_1" arrivalPos="41.44" arrivalSpeed="0.21" duration="42.00" routeLength="455.47" waitingTime="0.00" waitingCount="0" stopTime="0.00" timeLoss="9.09" rerouteNo="0" devices="tripinfo_Pepoli_10_34_x7" vType="passenger1" speedFactor="1.03" vaporized="traci"/>
    <tripinfo id="Pepoli_10_38_x7" depart="65.00" departLane="210_0" departPos="0.00" departSpeed="0.00" departDelay="0.00" arrival="100.00" arrivalLane="210_0" arrivalPos="342.63" arrivalSpeed="11.39" duration="35.00" routeLength="342.63" waitingTime="0.00" waitingCount="0" stopTime="0.00" timeLoss="4.63" rerouteNo="0" devices="tripinfo_Pepoli_10_38_x7" vType="passenger3" speedFactor="0.84" vaporized="traci"/>
    <tripinfo id="Pepoli_10_39_x7" depart="66.00" departLane="210_1" departPos="0.00" departSpeed="0.00" departDelay="0.00" arrival="100.00" arrivalLane=":34_0_1" arrivalPos="8.36" arrivalSpeed="13.94" duration="34.00" routeLength="403.90" waitingTime="0.00" waitingCount="0" stopTime="0.00" timeLoss="4.24" rerouteNo="0" devices="tripinfo_Pepoli_10_39_x7" vType="passenger2b" speedFactor="1.01" vaporized="traci"/>
    <tripinfo id="Pepoli_10_40_x7" depart="68.00" departLane="210_0" departPos="0.00" departSpeed="0.00" departDelay="0.00" arrival="100.00" arrivalLane="43[0]_0" arrivalPos="10.19" arrivalSpeed="16.10" duration="32.00" routeLength="384.75" waitingTime="0.00" waitingCount="0" stopTime="0.00" timeLoss="8.71" rerouteNo="0" devices="tripinfo_Pepoli_10_40_x7" vType="passenger2a" speedFactor="1.24" vaporized="traci"/>
    <tripinfo id="Pepoli_10_49_x7" depart="84.00" departLane="210_1" departPos="0.00" departSpeed="0.00" departDelay="0.00" arrival="100.00" arrivalLane="210_1" arrivalPos="167.69" arrivalSpeed="13.52" duration="16.00" routeLength="167.69" waitingTime="0.00" waitingCount="0" stopTime="0.00" timeLoss="3.07" rerouteNo="0" devices="tripinfo_Pepoli_10_49_x7" vType="passenger2a" speedFactor="1.01" vaporized="traci"/>
    <tripinfo id="Pepoli_10_4_x7" depart="6.00" departLane="210_0" departPos="0.00" departSpeed="0.00" departDelay="0.00" arrival="100.00" arrivalLane=":27_4_1" arrivalPos="1.10" arrivalSpeed="2.10" duration="94.00" routeLength="495.65" waitingTime="50.00" waitingCount="1" stopTime="0.00" timeLoss="58.69" rerouteNo="0" devices="tripinfo_Pepoli_10_4_x7" vType="passenger4" speedFactor="1.04" vaporized="traci"/>
    <tripinfo id="Pepoli_10_50_x7" depart="85.00" departLane="210_0" departPos="0.00" departSpeed="0.00" departDelay="0.00" arrival="100.00" arrivalLane="210_0" arrivalPos="151.65" arrivalSpeed="13.64" duration="15.00" routeLength="151.65" waitingTime="0.00" waitingCount="0" stopTime="0.00" timeLoss="3.36" rerouteNo="0" devices="tripinfo_Pepoli_10_50_x7" vType="passenger2a" speedFactor="1.03" vaporized="traci"/>
    <tripinfo id="Pepoli_10_55_x7" depart="94.00" departLane="210_0" departPos="0.00" departSpeed="0.00" departDelay="0.00" arrival="100.00" arrivalLane="210_0" arrivalPos="29.27" arrivalSpeed="9.84" duration="6.00" routeLength="29.27" waitingTime="0.00" waitingCount="0" stopTime="0.00" timeLoss="2.96" rerouteNo="0" devices="tripinfo_Pepoli_10_55_x7" vType="passenger1" speedFactor="1.03" vaporized="traci"/>
    <tripinfo id="Pepoli_10_56_x7" depart="97.00" departLane="210_0" departPos="0.00" departSpeed="0.00" departDelay="1.00" arrival="100.00" arrivalLane="210_0" arrivalPos="6.33" arrivalSpeed="4.35" duration="3.00" routeLength="6.33" waitingTime="0.00" waitingCount="0" stopTime="0.00" timeLoss="1.57" rerouteNo="0" devices="tripinfo_Pepoli_10_56_x7" vType="passenger4" speedFactor="1.05" vaporized="traci"/>
    <tripinfo id="Pepoli_10_57_x7" depart="98.00" departLane="210_1" departPos="0.00" departSpeed="0.00" departDelay="1.00" arrival="100.00" arrivalLane="210_1" arrivalPos="2.41" arrivalSpeed="2.41" duration="2.00" routeLength="2.41" waitingTime="0.00" waitingCount="0" stopTime="0.00" timeLoss="0.83" rerouteNo="0" devices="tripinfo_Pepoli_10_57_x7" vType="passenger3" speedFactor="1.04" vaporized="traci"/>
    <tripinfo id="Pepoli_11_17_x7" depart="29.00" departLane="210_1" departPos="0.00" departSpeed="0.00" departDelay="0.00" arrival="100.00" arrivalLane="43[1]_0" arrivalPos="55.01" arrivalSpeed="0.00" duration="71.00" routeLength="469.04" waitingTime="30.00" waitingCount="1" stopTime="0.00" timeLoss="36.79" rerouteNo="0" devices="tripinfo_Pepoli_11_17_x7" vType="passenger1" speedFactor="1.02" vaporized="traci"/>
    <tripinfo id="Pepoli_11_24_x7" depart="41.00" departLane="210_1" departPos="0.00" departSpeed="0.00" departDelay="0.00" arrival="100.00" arrivalLane="43[1]_2" arrivalPos="54.01" arrivalSpeed="0.00" duration="59.00" routeLength="468.04" waitingTime="12.00" waitingCount="1" stopTime="0.00" timeLoss="20.06" rerouteNo="0" devices="tripinfo_Pepoli_11_24_x7" vType="passenger3" speedFactor="0.89" vaporized="traci"/>
    <tripinfo id="Pepoli_11_30_x7" depart="51.00" departLane="210_1" departPos="0.00" departSpeed="0.00" departDelay="0.00" arrival="100.00" arrivalLane="43[1]_1" arrivalPos="48.01" arrivalSpeed="0.00" duration="49.00" routeLength="462.04" waitingTime="6.00" waitingCount="1" stopTime="0.00" timeLoss="13.32" rerouteNo="0" devices="tripinfo_Pepoli_11_30_x7" vType="passenger1" speedFactor="0.96" vaporized="traci"/>
    <tripinfo id="Pepoli_11_32_x7" depart="54.00" departLane="210_1" departPos="0.00" departSpeed="0.00" departDelay="0.00" arrival="100.00" arrivalLane="43[1]_2" arrivalPos="38.67" arrivalSpeed="3.51" duration="46.00" routeLength="452.70" waitingTime="0.00" waitingCount="0" stopTime="0.00" timeLoss="9.61" rerouteNo="0" devices="tripinfo_Pepoli_11_32_x7" vType="passenger1" speedFactor="0.92" vaporized="traci"/>
    <tripinfo id="Pepoli_11_37_x7" depart="63.00" departLane="210_1" departPos="0.00" departSpeed="0.00" departDelay="0.00" arrival="100.00" arrivalLane="43[1]_1" arrivalPos="16.80" arrivalSpeed="12.45" duration="37.00" routeLength="430.83" waitingTime="0.00" waitingCount="0" stopTime="0.00" timeLoss="4.52" rerouteNo="0" devices="tripinfo_Pepoli_11_37_x7" vType="passenger2a" speedFactor="0.99" vaporized="traci"/>
    <tripinfo id="Pepoli_11_3_x7" depart="5.00" departLane="210_1" departPos="0.00" departSpeed="0.00" departDelay="0.00" arrival="100.00" arrivalLane=":27_4_0" arrivalPos="1.56" arrivalSpeed="2.56" duration="95.00" routeLength="496.11" waitingTime="53.00" waitingCount="1" stopTime="0.00" timeLoss="60.10" rerouteNo="0" devices="tripinfo_Pepoli_11_3_x7" vType="passenger2a" speedFactor="1.05" vaporized="traci"/>
    <tripinfo id="Pepoli_11_41_x7" depart="70.00" departLane="210_1" departPos="0.00" departSpeed="0.00" departDelay="0.00" arrival="100.00" arrivalLane="210_1" arrivalPos="360.74" arrivalSpeed="14.69" duration="30.00" routeLength="360.74" waitingTime="0.00" waitingCount="0" stopTime="0.00" timeLoss="6.22" rerouteNo="0" devices="tripinfo_Pepoli_11_41_x7" vType="passenger2b" speedFactor="1.14" vaporized="traci"/>
    <tripinfo id="Pepoli_11_52_x7" depart="89.00" departLane="210_1" departPos="0.00" departSpeed="0.00" departDelay="0.00" arrival="100.00" arrivalLane="210_1" arrivalPos="87.17" arrivalSpeed="13.16" duration="11.00" routeLength="87.17" waitingTime="0.00" waitingCount="0" stopTime="0.00" timeLoss="3.55" rerouteNo="0" devices="tripinfo_Pepoli_11_52_x7" vType="passenger1" speedFactor="0.97" vaporized="traci"/>
    <tripinfo id="Pepoli_11_53_x7" depart="92.00" departLane="210_1" departPos="0.00" departSpeed="0.00" departDelay="2.00" arrival="100.00" arrivalLane="210_1" arrivalPos="54.29" arrivalSpeed="11.91" duration="8.00" routeLength="54.29" waitingTime="0.00" waitingCount="0" stopTime="0.00" timeLoss="2.74" rerouteNo="0" devices="tripinfo_Pepoli_11_53_x7" vType="passenger2b" speedFactor="0.92" vaporized="traci"/>
    <tripinfo id="Pepoli_11_54_x7" depart="95.00" departLane="210_1" departPos="0.00" departSpeed="0.00" departDelay="3.00" arrival="100.00" arrivalLane="210_1" arrivalPos="19.38" arrivalSpeed="7.47" duration="5.00" routeLength="19.38" waitingTime="0.00" waitingCount="0" stopTime="0.00" timeLoss="2.45" rerouteNo="0" devices="tripinfo_Pepoli_11_54_x7" vType="passenger1" speedFactor="0.90" vaporized="traci"/>
    <tripinfo id="Pepoli_11_6_x7" depart="10.00" departLane="210_1" departPos="0.00" departSpeed="0.00" departDelay="0.00" arrival="100.00" arrivalLane="43[1]_0" arrivalPos="73.52" arrivalSpeed="0.00" duration="90.00" routeLength="487.55" waitingTime="48.00" waitingCount="1" stopTime="0.00" timeLoss="55.87" rerouteNo="0" devices="tripinfo_Pepoli_11_6_x7" vType="passenger1" speedFactor="1.06" vaporized="traci"/>
    <tripinfo id="Pepoli_11_7_x7" depart="13.00" departLane="210_1" departPos="0.00" departSpeed="0.00" departDelay="1.00" arrival="100.00" arrivalLane=":27_4_2" arrivalPos="0.59" arrivalSpeed="1.59" duration="87.00" routeLength="495.14" waitingTime="39.00" waitingCount="1" stopTime="0.00" timeLoss="46.88" rerouteNo="0" devices="tripinfo_Pepoli_11_7_x7" vType="passenger1" speedFactor="0.91" vaporized="traci"/>
    <tripinfo id="Pepoli_11_8_x7" depart="16.00" departLane="210_1" departPos="0.00" departSpeed="0.00" departDelay="3.00" arrival="100.00" arrivalLane="43[1]_1" arrivalPos="73.02" arrivalSpeed="0.00" duration="84.00" routeLength="487.05" waitingTime="39.00" waitingCount="1" stopTime="0.00" timeLoss="45.30" rerouteNo="0" devices="tripinfo_Pepoli_11_8_x7" vType="passenger2a" speedFactor="0.93" vaporized="traci"/>
    <tripinfo id="Pepoli_11_9_x7" depart="18.00" departLane="210_1" departPos="0.00" departSpeed="0.00" departDelay="3.00" arrival="100.00" arrivalLane="43[1]_2" arrivalPos="73.02" arrivalSpeed="0.00" duration="82.00" routeLength="487.05" waitingTime="37.00" waitingCount="1" stopTime="0.00" timeLoss="48.83" rerouteNo="0" devices="tripinfo_Pepoli_11_9_x7" vType="passenger2a" speedFactor="1.09" vaporized="traci"/>
    <tripinfo id="Pepoli_12_42_x7" depart="72.00" departLane="210_2" departPos="0.00" departSpeed="0.00" departDelay="0.00" arrival="100.00" arrivalLane="210_2" arrivalPos="323.25" arrivalSpeed="13.19" duration="28.00" routeLength="323.25" waitingTime="0.00" waitingCount="0" stopTime="0.00" timeLoss="3.73" rerouteNo="0" devices="tripinfo_Pepoli_12_42_x7" vType="ignoring4" speedFactor="1.00" vaporized="traci"/>
    <tripinfo id="Pepoli_3_0_x7" depart="0.00" departLane="210_2" departPos="0.00" departSpeed="0.00" departDelay="0.00" arrival="100.00" arrivalLane="62_0" arrivalPos="191.72" arrivalSpeed="11.58" duration="100.00" routeLength="1116.67" waitingTime="6.00" waitingCount="1" stopTime="0.00" timeLoss="17.76" rerouteNo="0" devices="tripinfo_Pepoli_3_0_x7" vType="ignoring1" speedFactor="1.00" vaporized="traci"/>
    <tripinfo id="Pepoli_3_12_x7" depart="20.00" departLane="210_2" departPos="0.00" departSpeed="0.00" departDelay="0.00" arrival="100.00" arrivalLane="62_0" arrivalPos="46.59" arrivalSpeed="12.93" duration="80.00" routeLength="971.54" waitingTime="0.00" waitingCount="0" stopTime="0.00" timeLoss="8.23" rerouteNo="0" devices="tripinfo_Pepoli_3_12_x7" vType="ignoring1" speedFactor="1.00" vaporized="traci"/>
    <tripinfo id="Pepoli_3_43_x7" depart="75.00" departLane="210_2" departPos="0.00" departSpeed="0.00" departDelay="2.00" arrival="100.00" arrivalLane="210_2" arrivalPos="276.44" arrivalSpeed="12.94" duration="25.00" routeLength="276.44" waitingTime="0.00" waitingCount="0" stopTime="0.00" timeLoss="4.10" rerouteNo="0" devices="tripinfo_Pepoli_3_43_x7" vType="ignoring4" speedFactor="1.00" vaporized="traci"/>