<?xml version="1.0" encoding="UTF-8"?>

<!-- generated on 2025-10-20 16:45:08 by Eclipse SUMO libsumo Version 1.24.0
<libsumoConfiguration xmlns:xsi="http://www.w3.org/2001/XMLSchema-instance" xsi:noNamespaceSchemaLocation="http://sumo.dlr.de/xsd/libsumoConfiguration.xsd">

    <input>
        <net-file value="/home/julesbompard/Documents/Projets/sumo-experiments/src/sumo_experiments/preset_networks/bologna/acosta/acosta_buslanes.net.xml"/>
        <route-files value="/home/julesbompard/Documents/Projets/sumo-experiments/src/sumo_experiments/preset_networks/bologna/acosta/acosta_98423.rou.xml,/home/julesbompard/Documents/Projets/sumo-experiments/src/sumo_experiments/preset_networks/bologna/acosta/acosta_busses.rou.xml"/>
        <additional-files value="/home/julesbompard/Documents/Projets/sumo-experiments/src/sumo_experiments/preset_networks/bologna/acosta/acosta_tls.add.xml,/home/julesbompard/Documents/Projets/sumo-experiments/src/sumo_experiments/preset_networks/bologna/acosta/acosta_vtypes.add.xml,/home/julesbompard/Documents/Projets/sumo-experiments/src/sumo_experiments/preset_networks/bologna/acosta/acosta_detectors.add.xml,/home/julesbompard/Documents/Projets/sumo-experiments/src/sumo_experiments/preset_networks/bologna/acosta/acosta_bus_stops.add.xml"/>
    </input>

    <output>
        <tripinfo-output value="/home/julesbompard/Documents/Projets/sumo-experiments/src/sumo_experiments/preset_networks/bologna/acosta/tripinfos.xml"/>
    </output>

    <processing>
        <threads value="8"/>
        <time-to-teleport value="150"/>
    </processing>

    <report>
        <log value="/home/julesbompard/Documents/Projets/sumo-experiments/src/sumo_experiments/preset_networks/bologna/acosta/sumo_log.txt"/>
        <no-step-log value="true"/>
    </report>

    <random_number>
        <random value="true"/>
    </random_number>

    <gui_only>
        <gui-settings-file value="/home/julesbompard/Documents/Projets/sumo-experiments/src/sumo_experiments/preset_networks/bologna/acosta/settings.gui.xml"/>
    </gui_only>

</libsumoConfiguration>
-->

<tripinfos xmlns:xsi="http://www.w3.org/2001/XMLSchema-instance" xsi:noNamespaceSchemaLocation="http://sumo.dlr.de/xsd/tripinfo_file.xsd">
    <tripinfo id="Audinot_7_0_x7" depart="0.00" departLane="131_0" departPos="0.00" departSpeed="0.00" departDelay="0.00" arrival="72.00" arrivalLane="209_0" arrivalPos="395.59" arrivalSpeed="14.19" duration="72.00" routeLength="873.23" waitingTime="0.00" waitingCount="0" stopTime="0.00" timeLoss="9.75" rerouteNo="0" devices="tripinfo_Audinot_7_0_x7" vType="passenger2a" speedFactor="1.04" vaporized=""/>
    <tripinfo id="Togliatti_12_15_x7" depart="21.00" departLane="85_2" departPos="0.00" departSpeed="0.00" departDelay="0.00" arrival="96.00" arrivalLane="136_0" arrivalPos="186.20" arrivalSpeed="14.34" duration="75.00" routeLength="909.95" waitingTime="0.00" waitingCount="0" stopTime="0.00" timeLoss="13.57" rerouteNo="0" devices="tripinfo_Togliatti_12_15_x7" vType="passenger2b" speedFactor="1.10" vaporized=""/>
    <tripinfo id="Costa_1_2_x7" depart="9.00" departLane="78[0]_0" departPos="0.00" departSpeed="0.00" departDelay="4.00" arrival="109.00" arrivalLane="86_0" arrivalPos="321.19" arrivalSpeed="14.06" duration="100.00" routeLength="1191.74" waitingTime="0.00" waitingCount="0" stopTime="0.00" timeLoss="13.50" rerouteNo="0" devices="tripinfo_Costa_1_2_x7" vType="passenger2b" speedFactor="1.02" vaporized=""/>
    <tripinfo id="Togliatti_12_24_x7" depart="34.00" departLane="85_2" departPos="0.00" departSpeed="0.00" departDelay="0.00" arrival="109.00" arrivalLane="136_0" arrivalPos="186.20" arrivalSpeed="13.46" duration="75.00" routeLength="909.95" waitingTime="0.00" waitingCount="0" stopTime="0.00" timeLoss="10.75" rerouteNo="0" devices="tripinfo_Togliatti_12_24_x7" vType="passenger1" speedFactor="1.04" vaporized=""/>
    <tripinfo id="Pepoli_8_16_x7" depart="27.00" departLane="210_0" departPos="0.00" departSpeed="0.00" departDelay="0.00" arrival="118.00" arrivalLane="134b_0" arrivalPos="156.17" arrivalSpeed="13.80" duration="91.00" routeLength="692.71" waitingTime="10.00" waitingCount="1" stopTime="0.00" timeLoss="41.21" rerouteNo="0" devices="tripinfo_Pepoli_8_16_x7" vType="passenger1" speedFactor="1.04" vaporized=""/>
    <tripinfo id="Silvani_11_0_x7" depart="0.00" departLane="203[0]_0" departPos="0.00" departSpeed="0.00" departDelay="0.00" arrival="119.00" arrivalLane="114_0" arrivalPos="692.70" arrivalSpeed="13.62" duration="119.00" routeLength="1114.25" waitingTime="26.00" waitingCount="1" stopTime="0.00" timeLoss="38.62" rerouteNo="0" devices="tripinfo_Silvani_11_0_x7" vType="passenger3" speedFactor="1.01" vaporized=""/>
    <tripinfo id="Togliatti_2_8_x7" depart="11.00" departLane="85_0" departPos="0.00" departSpeed="0.00" departDelay="0.00" arrival="123.00" arrivalLane="77[1][1]_0" arrivalPos="463.98" arrivalSpeed="12.21" duration="112.00" routeLength="1145.48" waitingTime="6.00" waitingCount="1" stopTime="0.00" timeLoss="20.94" rerouteNo="0" devices="tripinfo_Togliatti_2_8_x7" vType="passenger1" speedFactor="0.93" vaporized=""/>
    <tripinfo id="Costa_12_0_x7" depart="0.00" departLane="78[0]_0" departPos="0.00" departSpeed="0.00" departDelay="0.00" arrival="126.00" arrivalLane="136_0" arrivalPos="186.20" arrivalSpeed="14.32" duration="126.00" routeLength="1416.45" waitingTime="9.00" waitingCount="1" stopTime="0.00" timeLoss="28.30" rerouteNo="0" devices="tripinfo_Costa_12_0_x7" vType="passenger1" speedFactor="1.07" vaporized=""/>
    <tripinfo id="Vittorio_Veneto_1_4_x7" depart="18.00" departLane="224[0]_0" departPos="0.00" departSpeed="0.00" departDelay="0.00" arrival="130.00" arrivalLane="86_0" arrivalPos="321.19" arrivalSpeed="13.55" duration="112.00" routeLength="1143.28" waitingTime="17.00" waitingCount="1" stopTime="0.00" timeLoss="30.95" rerouteNo="0" devices="tripinfo_Vittorio_Veneto_1_4_x7" vType="passenger1" speedFactor="1.04" vaporized=""/>
    <tripinfo id="Costa_12_1_x7" depart="7.00" departLane="78[0]_0" departPos="0.00" departSpeed="0.00" departDelay="5.00" arrival="132.00" arrivalLane="136_0" arrivalPos="186.20" arrivalSpeed="12.43" duration="125.00" routeLength="1416.45" waitingTime="0.00" waitingCount="0" stopTime="0.00" timeLoss="17.23" rerouteNo="0" devices="tripinfo_Costa_12_1_x7" vType="passenger2a" speedFactor="0.97" vaporized=""/>
    <tripinfo id="XXI_Aprile_12_6_x7" depart="21.00" departLane="13_0" departPos="0.00" departSpeed="0.00" departDelay="0.00" arrival="134.00" arrivalLane="136_0" arrivalPos="186.20" arrivalSpeed="13.29" duration="113.00" routeLength="1343.89" waitingTime="0.00" waitingCount="0" stopTime="0.00" timeLoss="19.31" rerouteNo="0" devices="tripinfo_XXI_Aprile_12_6_x7" vType="passenger2a" speedFactor="1.06" vaporized=""/>
    <tripinfo id="Togliatti_3_18_x7" depart="25.00" departLane="85_0" departPos="0.00" departSpeed="0.00" departDelay="0.00" arrival="134.00" arrivalLane="14_0" arrivalPos="77.26" arrivalSpeed="14.46" duration="109.00" routeLength="1110.28" waitingTime="9.00" waitingCount="1" stopTime="0.00" timeLoss="29.90" rerouteNo="0" devices="tripinfo_Togliatti_3_18_x7" vType="passenger2a" speedFactor="1.05" vaporized=""/>
    <tripinfo id="Costa_3_21_x7" depart="54.00" departLane="78[0]_0" departPos="0.00" departSpeed="0.00" departDelay="0.00" arrival="137.00" arrivalLane="14_0" arrivalPos="77.26" arrivalSpeed="11.45" duration="83.00" routeLength="850.23" waitingTime="0.00" waitingCount="0" stopTime="0.00" timeLoss="14.83" rerouteNo="0" devices="tripinfo_Costa_3_21_x7" vType="passenger1" speedFactor="0.92" vaporized=""/>
    <tripinfo id="Silvani_11_9_x7" depart="21.00" departLane="203[0]_0" departPos="0.00" departSpeed="0.00" departDelay="0.00" arrival="140.00" arrivalLane="114_0" arrivalPos="692.70" arrivalSpeed="14.05" duration="119.00" routeLength="1114.25" waitingTime="17.00" waitingCount="2" stopTime="0.00" timeLoss="41.87" rerouteNo="0" devices="tripinfo_Silvani_11_9_x7" vType="passenger2b" speedFactor="1.05" vaporized=""/>
    <tripinfo id="Pepoli_8_23_x7" depart="39.00" departLane="210_0" departPos="0.00" departSpeed="0.00" departDelay="0.00" arrival="143.00" arrivalLane="134b_0" arrivalPos="156.17" arrivalSpeed="13.80" duration="104.00" routeLength="692.71" waitingTime="28.00" waitingCount="2" stopTime="0.00" timeLoss="52.47" rerouteNo="0" devices="tripinfo_Pepoli_8_23_x7" vType="passenger4" speedFactor="1.00" vaporized=""/>
    <tripinfo id="Silvani_11_12_x7" depart="28.00" departLane="203[0]_0" departPos="0.00" departSpeed="0.00" departDelay="0.00" arrival="144.00" arrivalLane="114_0" arrivalPos="692.70" arrivalSpeed="13.30" duration="116.00" routeLength="1114.25" waitingTime="15.00" waitingCount="2" stopTime="0.00" timeLoss="35.32" rerouteNo="0" devices="tripinfo_Silvani_11_12_x7" vType="passenger4" speedFactor="1.00" vaporized=""/>
    <tripinfo id="Pepoli_8_25_x7" depart="42.00" departLane="210_0" departPos="0.00" departSpeed="0.00" departDelay="0.00" arrival="147.00" arrivalLane="134b_0" arrivalPos="156.17" arrivalSpeed="11.08" duration="105.00" routeLength="692.71" waitingTime="27.00" waitingCount="2" stopTime="0.00" timeLoss="47.56" rerouteNo="0" devices="tripinfo_Pepoli_8_25_x7" vType="passenger2b" speedFactor="0.88" vaporized=""/>
    <tripinfo id="XXI_Aprile_2_12_x7" depart="42.00" departLane="13_0" departPos="0.00" departSpeed="0.00" departDelay="0.00" arrival="147.00" arrivalLane="77[1][1]_0" arrivalPos="463.98" arrivalSpeed="11.56" duration="105.00" routeLength="976.81" waitingTime="11.00" waitingCount="1" stopTime="0.00" timeLoss="24.79" rerouteNo="0" devices="tripinfo_XXI_Aprile_2_12_x7" vType="passenger2b" speedFactor="0.89" vaporized=""/>
    <tripinfo id="Vittorio_Veneto_1_10_x7" depart="45.00" departLane="224[0]_0" departPos="0.00" departSpeed="0.00" departDelay="0.00" arrival="148.00" arrivalLane="86_0" arrivalPos="321.19" arrivalSpeed="13.11" duration="103.00" routeLength="1143.28" waitingTime="5.00" waitingCount="1" stopTime="0.00" timeLoss="17.17" rerouteNo="0" devices="tripinfo_Vittorio_Veneto_1_10_x7" vType="passenger2a" speedFactor="0.98" vaporized=""/>
    <tripinfo id="Pepoli_8_28_x7" depart="48.00" departLane="210_0" departPos="0.00" departSpeed="0.00" departDelay="0.00" arrival="150.00" arrivalLane="134b_0" arrivalPos="156.17" arrivalSpeed="11.38" duration="102.00" routeLength="692.71" waitingTime="21.00" waitingCount="2" stopTime="0.00" timeLoss="41.35" rerouteNo="0" devices="tripinfo_Pepoli_8_28_x7" vType="passenger2b" speedFactor="0.84" vaporized=""/>
    <tripinfo id="Silvani_11_8_x7" depart="18.00" departLane="203[0]_0" departPos="0.00" departSpeed="0.00" departDelay="0.00" arrival="151.00" arrivalLane="114_0" arrivalPos="692.70" arrivalSpeed="10.64" duration="133.00" routeLength="1114.25" waitingTime="20.00" waitingCount="2" stopTime="0.00" timeLoss="38.28" rerouteNo="0" devices="tripinfo_Silvani_11_8_x7" vType="passenger2b" speedFactor="0.85" vaporized=""/>
    <tripinfo id="Costa_1_15_x7" depart="39.00" departLane="78[0]_0" departPos="0.00" departSpeed="0.00" departDelay="0.00" arrival="159.00" arrivalLane="86_2" arrivalPos="321.19" arrivalSpeed="14.06" duration="120.00" routeLength="1185.38" waitingTime="12.00" waitingCount="2" stopTime="0.00" timeLoss="40.02" rerouteNo="0" devices="tripinfo_Costa_1_15_x7" vType="passenger2a" speedFactor="1.09" vaporized=""/>
    <tripinfo id="Costa_1_17_x7" depart="44.00" departLane="78[0]_0" departPos="0.00" departSpeed="0.00" departDelay="0.00" arrival="159.00" arrivalLane="86_0" arrivalPos="321.19" arrivalSpeed="12.71" duration="115.00" routeLength="1188.91" waitingTime="6.00" waitingCount="1" stopTime="0.00" timeLoss="24.05" rerouteNo="0" devices="tripinfo_Costa_1_17_x7" vType="passenger1" speedFactor="0.96" vaporized=""/>
    <tripinfo id="Togliatti_12_48_x7" depart="68.00" departLane="85_2" departPos="0.00" departSpeed="0.00" departDelay="0.00" arrival="159.00" arrivalLane="136_0" arrivalPos="186.20" arrivalSpeed="11.42" duration="91.00" routeLength="909.95" waitingTime="0.00" waitingCount="0" stopTime="0.00" timeLoss="14.72" rerouteNo="0" devices="tripinfo_Togliatti_12_48_x7" vType="passenger2a" speedFactor="0.89" vaporized=""/>
    <tripinfo id="Costa_1_19_x7" depart="49.00" departLane="78[0]_0" departPos="0.00" departSpeed="0.00" departDelay="0.00" arrival="160.00" arrivalLane="86_1" arrivalPos="321.19" arrivalSpeed="13.56" duration="111.00" routeLength="1188.91" waitingTime="3.00" waitingCount="1" stopTime="0.00" timeLoss="28.52" rerouteNo="0" devices="tripinfo_Costa_1_19_x7" vType="passenger2a" speedFactor="1.06" vaporized=""/>
    <tripinfo id="XXI_Aprile_1_17_x7" depart="60.00" departLane="13_0" departPos="0.00" departSpeed="0.00" departDelay="0.00" arrival="162.00" arrivalLane="86_2" arrivalPos="321.19" arrivalSpeed="12.62" duration="102.00" routeLength="1112.82" waitingTime="1.00" waitingCount="1" stopTime="0.00" timeLoss="20.28" rerouteNo="0" devices="tripinfo_XXI_Aprile_1_17_x7" vType="passenger1" speedFactor="1.00" vaporized=""/>
    <tripinfo id="Silvani_11_16_x7" depart="37.00" departLane="203[0]_0" departPos="0.00" departSpeed="0.00" departDelay="0.00" arrival="164.00" arrivalLane="114_0" arrivalPos="692.70" arrivalSpeed="13.86" duration="127.00" routeLength="1114.25" waitingTime="23.00" waitingCount="2" stopTime="0.00" timeLoss="48.48" rerouteNo="0" devices="tripinfo_Silvani_11_16_x7" vType="passenger2a" speedFactor="1.04" vaporized=""/>
    <tripinfo id="Togliatti_12_59_x7" depart="84.00" departLane="85_2" departPos="0.00" departSpeed="0.00" departDelay="0.00" arrival="164.00" arrivalLane="136_0" arrivalPos="186.20" arrivalSpeed="13.67" duration="80.00" routeLength="909.95" waitingTime="0.00" waitingCount="0" stopTime="0.00" timeLoss="12.34" rerouteNo="0" devices="tripinfo_Togliatti_12_59_x7" vType="passenger1" speedFactor="0.99" vaporized=""/>
    <tripinfo id="Silvani_11_17_x7" depart="40.00" departLane="203[0]_0" departPos="0.00" departSpeed="0.00" departDelay="0.00" arrival="166.00" arrivalLane="114_1" arrivalPos="692.70" arrivalSpeed="12.80" duration="126.00" routeLength="1114.25" waitingTime="20.00" waitingCount="2" stopTime="0.00" timeLoss="46.00" rerouteNo="0" devices="tripinfo_Silvani_11_17_x7" vType="passenger3" speedFactor="1.01" vaporized=""/>
    <tripinfo id="Silvani_11_13_x7" depart="31.00" departLane="203[0]_0" departPos="0.00" departSpeed="0.00" departDelay="1.00" arrival="167.00" arrivalLane="114_0" arrivalPos="692.70" arrivalSpeed="11.84" duration="136.00" routeLength="1114.25" waitingTime="25.00" waitingCount="3" stopTime="0.00" timeLoss="49.33" rerouteNo="0" devices="tripinfo_Silvani_11_13_x7" vType="passenger3" speedFactor="0.94" vaporized=""/>
    <tripinfo id="Silvani_11_23_x7" depart="54.00" departLane="203[0]_0" departPos="0.00" departSpeed="0.00" departDelay="0.00" arrival="168.00" arrivalLane="114_0" arrivalPos="692.70" arrivalSpeed="12.75" duration="114.00" routeLength="1114.25" waitingTime="11.00" waitingCount="2" stopTime="0.00" timeLoss="33.55" rerouteNo="0" devices="tripinfo_Silvani_11_23_x7" vType="passenger2a" speedFactor="1.00" vaporized=""/>
    <tripinfo id="Turati_3_2_x7" depart="69.00" departLane="195_0" departPos="0.00" departSpeed="0.00" departDelay="0.00" arrival="171.00" arrivalLane="14_0" arrivalPos="77.26" arrivalSpeed="13.15" duration="102.00" routeLength="947.57" waitingTime="15.00" waitingCount="1" stopTime="0.00" timeLoss="32.93" rerouteNo="0" devices="tripinfo_Turati_3_2_x7" vType="ignoring4" speedFactor="1.00" vaporized=""/>
    <tripinfo id="Pepoli_3_0_x7" depart="0.00" departLane="210_2" departPos="0.00" departSpeed="0.00" departDelay="0.00" arrival="173.00" arrivalLane="14_0" arrivalPos="77.26" arrivalSpeed="13.18" duration="173.00" routeLength="1941.55" waitingTime="8.00" waitingCount="1" stopTime="0.00" timeLoss="30.85" rerouteNo="0" devices="tripinfo_Pepoli_3_0_x7" vType="ignoring2a" speedFactor="1.00" vaporized=""/>
    <tripinfo id="Pepoli_3_2_x7" depart="3.00" departLane="210_2" departPos="0.00" departSpeed="0.00" departDelay="0.00" arrival="175.00" arrivalLane="14_0" arrivalPos="77.26" arrivalSpeed="12.70" duration="172.00" routeLength="1941.55" waitingTime="7.00" waitingCount="1" stopTime="0.00" timeLoss="29.84" rerouteNo="0" devices="tripinfo_Pepoli_3_2_x7" vType="ignoring1" speedFactor="1.00" vaporized=""/>
    <tripinfo id="Vittorio_Veneto_1_13_x7" depart="59.00" departLane="224[0]_0" departPos="0.00" departSpeed="0.00" departDelay="0.00" arrival="175.00" arrivalLane="86_0" arrivalPos="321.19" arrivalSpeed="14.96" duration="116.00" routeLength="1143.28" waitingTime="11.00" waitingCount="1" stopTime="0.00" timeLoss="40.93" rerouteNo="0" devices="tripinfo_Vittorio_Veneto_1_13_x7" vType="passenger1" speedFactor="1.12" vaporized=""/>
    <tripinfo id="Vittorio_Veneto_1_14_x7" depart="64.00" departLane="224[0]_0" departPos="0.00" departSpeed="0.00" departDelay="0.00" arrival="181.00" arrivalLane="86_0" arrivalPos="321.19" arrivalSpeed="12.50" duration="117.00" routeLength="1143.28" waitingTime="11.00" waitingCount="1" stopTime="0.00" timeLoss="32.12" rerouteNo="0" devices="tripinfo_Vittorio_Veneto_1_14_x7" vType="passenger1" speedFactor="0.99" vaporized=""/>
    <tripinfo id="XXI_Aprile_7_0_x7" depart="0.00" departLane="8_0" departPos="0.00" departSpeed="0.00" departDelay="0.00" arrival="182.00" arrivalLane="209_0" arrivalPos="395.59" arrivalSpeed="13.61" duration="182.00" routeLength="2111.89" waitingTime="0.00" waitingCount="0" stopTime="0.00" timeLoss="24.41" rerouteNo="0" devices="tripinfo_XXI_Aprile_7_0_x7" vType="passenger3" speedFactor="1.00" vaporized=""/>
    <tripinfo id="XXI_Aprile_7_1_x7" depart="3.00" departLane="8_0" departPos="0.00" departSpeed="0.00" departDelay="0.00" arrival="182.00" arrivalLane="209_1" arrivalPos="395.59" arrivalSpeed="14.61" duration="179.00" routeLength="2111.89" waitingTime="0.00" waitingCount="0" stopTime="0.00" timeLoss="36.56" rerouteNo="0" devices="tripinfo_XXI_Aprile_7_1_x7" vType="passenger2a" speedFactor="1.10" vaporized=""/>
    <tripinfo id="Silvani_11_32_x7" depart="75.00" departLane="203[0]_0" departPos="0.00" departSpeed="0.00" departDelay="0.00" arrival="182.00" arrivalLane="114_1" arrivalPos="692.70" arrivalSpeed="14.03" duration="107.00" routeLength="1114.25" waitingTime="14.00" waitingCount="2" stopTime="0.00" timeLoss="33.85" rerouteNo="0" devices="tripinfo_Silvani_11_32_x7" vType="passenger2b" speedFactor="1.11" vaporized=""/>
    <tripinfo id="Silvani_11_27_x7" depart="63.00" departLane="203[0]_0" departPos="0.00" departSpeed="0.00" departDelay="0.00" arrival="184.00" arrivalLane="114_0" arrivalPos="692.70" arrivalSpeed="12.85" duration="121.00" routeLength="1114.25" waitingTime="18.00" waitingCount="2" stopTime="0.00" timeLoss="41.84" rerouteNo="0" devices="tripinfo_Silvani_11_27_x7" vType="passenger2b" speedFactor="1.02" vaporized=""/>
    <tripinfo id="Silvani_11_41_x7" depart="96.00" departLane="203[0]_0" departPos="0.00" departSpeed="0.00" departDelay="0.00" arrival="186.00" arrivalLane="114_1" arrivalPos="692.70" arrivalSpeed="15.13" duration="90.00" routeLength="1114.25" waitingTime="0.00" waitingCount="0" stopTime="0.00" timeLoss="16.16" rerouteNo="0" devices="tripinfo_Silvani_11_41_x7" vType="passenger1" speedFactor="1.10" vaporized=""/>
    <tripinfo id="Togliatti_2_32_x7" depart="46.00" departLane="85_0" departPos="0.00" departSpeed="0.00" departDelay="1.00" arrival="189.00" arrivalLane="77[1][1]_0" arrivalPos="463.98" arrivalSpeed="11.25" duration="143.00" routeLength="1145.48" waitingTime="25.00" waitingCount="1" stopTime="0.00" timeLoss="43.34" rerouteNo="0" devices="tripinfo_Togliatti_2_32_x7" vType="passenger2a" speedFactor="0.86" vaporized=""/>
    <tripinfo id="Vittorio_Veneto_1_12_x7" depart="55.00" departLane="224[0]_0" departPos="0.00" departSpeed="0.00" departDelay="0.00" arrival="189.00" arrivalLane="86_0" arrivalPos="321.19" arrivalSpeed="10.52" duration="134.00" routeLength="1143.28" waitingTime="13.00" waitingCount="1" stopTime="0.00" timeLoss="25.67" rerouteNo="0" devices="tripinfo_Vittorio_Veneto_1_12_x7" vType="passenger5" speedFactor="0.77" vaporized=""/>
    <tripinfo id="Costa_12_7_x7" depart="18.00" departLane="78[0]_0" departPos="0.00" departSpeed="0.00" departDelay="0.00" arrival="190.00" arrivalLane="136_0" arrivalPos="186.20" arrivalSpeed="11.46" duration="172.00" routeLength="1416.45" waitingTime="25.00" waitingCount="2" stopTime="0.00" timeLoss="45.31" rerouteNo="0" devices="tripinfo_Costa_12_7_x7" vType="passenger3" speedFactor="0.83" vaporized=""/>
    <tripinfo id="Togliatti_2_40_x7" depart="56.00" departLane="85_0" departPos="0.00" departSpeed="0.00" departDelay="0.00" arrival="190.00" arrivalLane="77[1][1]_0" arrivalPos="463.98" arrivalSpeed="11.70" duration="134.00" routeLength="1145.48" waitingTime="18.00" waitingCount="1" stopTime="0.00" timeLoss="43.46" rerouteNo="0" devices="tripinfo_Togliatti_2_40_x7" vType="passenger1" speedFactor="0.94" vaporized=""/>
    <tripinfo id="Silvani_11_33_x7" depart="77.00" departLane="203[0]_0" departPos="0.00" departSpeed="0.00" departDelay="0.00" arrival="190.00" arrivalLane="114_0" arrivalPos="692.70" arrivalSpeed="12.32" duration="113.00" routeLength="1114.25" waitingTime="10.00" waitingCount="2" stopTime="0.00" timeLoss="29.69" rerouteNo="0" devices="tripinfo_Silvani_11_33_x7" vType="passenger2a" speedFactor="0.97" vaporized=""/>
    <tripinfo id="Silvani_11_43_x7" depart="101.00" departLane="203[0]_0" departPos="0.00" departSpeed="0.00" departDelay="0.00" arrival="190.00" arrivalLane="114_2" arrivalPos="692.70" arrivalSpeed="13.71" duration="89.00" routeLength="1114.25" waitingTime="0.00" waitingCount="0" stopTime="0.00" timeLoss="11.97" rerouteNo="0" devices="tripinfo_Silvani_11_43_x7" vType="passenger3" speedFactor="1.05" vaporized=""/>
    <tripinfo id="Costa_12_9_x7" depart="24.00" departLane="78[0]_0" departPos="0.00" departSpeed="0.00" departDelay="1.00" arrival="191.00" arrivalLane="136_0" arrivalPos="186.20" arrivalSpeed="14.07" duration="167.00" routeLength="1416.45" waitingTime="23.00" waitingCount="1" stopTime="0.00" timeLoss="71.11" rerouteNo="0" devices="tripinfo_Costa_12_9_x7" vType="passenger1" speedFactor="1.09" vaporized=""/>
    <tripinfo id="Togliatti_2_47_x7" depart="66.00" departLane="85_0" departPos="0.00" departSpeed="0.00" departDelay="0.00" arrival="192.00" arrivalLane="77[1][1]_0" arrivalPos="463.98" arrivalSpeed="13.97" duration="126.00" routeLength="1145.48" waitingTime="15.00" waitingCount="1" stopTime="0.00" timeLoss="47.22" rerouteNo="0" devices="tripinfo_Togliatti_2_47_x7" vType="passenger1" speedFactor="1.09" vaporized=""/>
    <tripinfo id="Costa_12_13_x7" depart="33.00" departLane="78[0]_0" departPos="0.00" departSpeed="0.00" departDelay="0.00" arrival="193.00" arrivalLane="136_0" arrivalPos="186.20" arrivalSpeed="12.70" duration="160.00" routeLength="1413.62" waitingTime="19.00" waitingCount="1" stopTime="0.00" timeLoss="53.46" rerouteNo="0" devices="tripinfo_Costa_12_13_x7" vType="passenger2a" speedFactor="0.98" vaporized=""/>
    <tripinfo id="Pepoli_8_44_x7" depart="75.00" departLane="210_0" departPos="0.00" departSpeed="0.00" departDelay="0.00" arrival="194.00" arrivalLane="134b_0" arrivalPos="156.17" arrivalSpeed="10.92" duration="119.00" routeLength="692.71" waitingTime="42.00" waitingCount="2" stopTime="0.00" timeLoss="61.09" rerouteNo="0" devices="tripinfo_Pepoli_8_44_x7" vType="passenger2b" speedFactor="0.88" vaporized=""/>
    <tripinfo id="Silvani_11_44_x7" depart="104.00" departLane="203[0]_0" departPos="0.00" departSpeed="0.00" departDelay="1.00" arrival="196.00" arrivalLane="114_0" arrivalPos="692.70" arrivalSpeed="12.81" duration="92.00" routeLength="1114.25" waitingTime="0.00" waitingCount="0" stopTime="0.00" timeLoss="8.36" rerouteNo="0" devices="tripinfo_Silvani_11_44_x7" vType="passenger1" speedFactor="0.96" vaporized=""/>
    <tripinfo id="Costa_12_11_x7" depart="28.00" departLane="78[0]_0" departPos="0.00" departSpeed="0.00" departDelay="0.00" arrival="197.00" arrivalLane="136_0" arrivalPos="186.20" arrivalSpeed="11.25" duration="169.00" routeLength="1416.45" waitingTime="11.00" waitingCount="1" stopTime="0.00" timeLoss="42.08" rerouteNo="0" devices="tripinfo_Costa_12_11_x7" vType="passenger1" speedFactor="0.82" vaporized=""/>
    <tripinfo id="Pepoli_8_51_x7" depart="87.00" departLane="210_0" departPos="0.00" departSpeed="0.00" departDelay="0.00" arrival="197.00" arrivalLane="134b_0" arrivalPos="156.17" arrivalSpeed="10.79" duration="110.00" routeLength="692.71" waitingTime="36.00" waitingCount="1" stopTime="0.00" timeLoss="50.11" rerouteNo="0" devices="tripinfo_Pepoli_8_51_x7" vType="passenger3" speedFactor="0.86" vaporized=""/>
    <tripinfo id="Costa_1_28_x7" depart="73.00" departLane="78[0]_0" departPos="0.00" departSpeed="0.00" departDelay="0.00" arrival="198.00" arrivalLane="86_0" arrivalPos="321.19" arrivalSpeed="12.48" duration="125.00" routeLength="1191.74" waitingTime="10.00" waitingCount="1" stopTime="0.00" timeLoss="28.73" rerouteNo="0" devices="tripinfo_Costa_1_28_x7" vType="passenger4" speedFactor="0.91" vaporized=""/>
    <tripinfo id="Vittorio_Veneto_2_1_x7" depart="4.00" departLane="224[0]_0" departPos="0.00" departSpeed="0.00" departDelay="0.00" arrival="199.00" arrivalLane="77[1][1]_0" arrivalPos="463.98" arrivalSpeed="12.32" duration="195.00" routeLength="1629.80" waitingTime="39.00" waitingCount="3" stopTime="0.00" timeLoss="64.69" rerouteNo="0" devices="tripinfo_Vittorio_Veneto_2_1_x7" vType="passenger1" speedFactor="0.92" vaporized=""/>
    <tripinfo id="XXI_Aprile_12_10_x7" depart="35.00" departLane="13_0" departPos="0.00" departSpeed="0.00" departDelay="0.00" arrival="199.00" arrivalLane="136_0" arrivalPos="186.20" arrivalSpeed="13.71" duration="164.00" routeLength="1343.89" waitingTime="26.00" waitingCount="2" stopTime="0.00" timeLoss="82.57" rerouteNo="0" devices="tripinfo_XXI_Aprile_12_10_x7" vType="passenger3" speedFactor="1.22" vaporized=""/>
    <tripinfo id="Costa_12_18_x7" depart="47.00" departLane="78[0]_0" departPos="0.00" departSpeed="0.00" departDelay="0.00" arrival="200.00" arrivalLane="136_0" arrivalPos="186.20" arrivalSpeed="12.88" duration="153.00" routeLength="1416.45" waitingTime="8.00" waitingCount="1" stopTime="0.00" timeLoss="43.11" rerouteNo="0" devices="tripinfo_Costa_12_18_x7" vType="passenger3" speedFactor="0.95" vaporized=""/>
    <tripinfo id="Silvani_7_2_x7" depart="4.00" departLane="203[0]_1" departPos="0.00" departSpeed="0.00" departDelay="0.00" arrival="201.00" arrivalLane="209_0" arrivalPos="395.59" arrivalSpeed="15.55" duration="197.00" routeLength="1454.90" waitingTime="73.00" waitingCount="4" stopTime="0.00" timeLoss="107.73" rerouteNo="0" devices="tripinfo_Silvani_7_2_x7" vType="passenger1" speedFactor="1.18" vaporized=""/>
    <tripinfo id="Vittorio_Veneto_2_6_x7" depart="27.00" departLane="224[0]_0" departPos="0.00" departSpeed="0.00" departDelay="0.00" arrival="201.00" arrivalLane="77[1][1]_0" arrivalPos="463.98" arrivalSpeed="13.05" duration="174.00" routeLength="1629.80" waitingTime="21.00" waitingCount="2" stopTime="0.00" timeLoss="49.00" rerouteNo="0" devices="tripinfo_Vittorio_Veneto_2_6_x7" vType="passenger3" speedFactor="0.96" vaporized=""/>
    <tripinfo id="Togliatti_12_83_x7" depart="118.00" departLane="85_2" departPos="0.00" departSpeed="0.00" departDelay="0.00" arrival="202.00" arrivalLane="136_0" arrivalPos="186.20" arrivalSpeed="14.71" duration="84.00" routeLength="909.95" waitingTime="0.00" waitingCount="0" stopTime="0.00" timeLoss="20.50" rerouteNo="0" devices="tripinfo_Togliatti_12_83_x7" vType="passenger3" speedFactor="1.07" vaporized=""/>
    <tripinfo id="bus_81_0" depart="4.00" departLane="55_0" departPos="0.00" departSpeed="0.00" departDelay="4.00" arrival="203.00" arrivalLane="114_0" arrivalPos="692.70" arrivalSpeed="13.20" duration="199.00" routeLength="1058.08" waitingTime="59.00" waitingCount="3" stopTime="40.00" timeLoss="82.56" rerouteNo="0" devices="tripinfo_bus_81_0" vType="bus" speedFactor="1.00" vaporized=""/>
    <tripinfo id="Pepoli_8_70_x7" depart="120.00" departLane="210_0" departPos="0.00" departSpeed="0.00" departDelay="0.00" arrival="203.00" arrivalLane="134b_0" arrivalPos="156.17" arrivalSpeed="14.05" duration="83.00" routeLength="692.71" waitingTime="15.00" waitingCount="1" stopTime="0.00" timeLoss="32.54" rerouteNo="0" devices="tripinfo_Pepoli_8_70_x7" vType="passenger2a" speedFactor="1.02" vaporized=""/>
    <tripinfo id="bus_13_0" depart="0.00" departLane="55_0" departPos="0.00" departSpeed="0.00" departDelay="0.00" arrival="204.00" arrivalLane="114_1" arrivalPos="692.70" arrivalSpeed="12.89" duration="204.00" routeLength="1058.08" waitingTime="63.00" waitingCount="1" stopTime="40.00" timeLoss="87.29" rerouteNo="0" devices="tripinfo_bus_13_0" vType="bus" speedFactor="1.00" vaporized=""/>
    <tripinfo id="Pepoli_10_18_x7" depart="30.00" departLane="210_0" departPos="0.00" departSpeed="0.00" departDelay="0.00" arrival="204.00" arrivalLane="204[1][1]_1" arrivalPos="435.51" arrivalSpeed="13.95" duration="174.00" routeLength="1470.66" waitingTime="46.00" waitingCount="3" stopTime="0.00" timeLoss="74.68" rerouteNo="0" devices="tripinfo_Pepoli_10_18_x7" vType="passenger2b" speedFactor="1.07" vaporized=""/>
    <tripinfo id="Pepoli_10_4_x7" depart="6.00" departLane="210_0" departPos="0.00" departSpeed="0.00" departDelay="0.00" arrival="205.00" arrivalLane="204[1][1]_0" arrivalPos="435.51" arrivalSpeed="13.60" duration="199.00" routeLength="1470.66" waitingTime="71.00" waitingCount="2" stopTime="0.00" timeLoss="90.75" rerouteNo="0" devices="tripinfo_Pepoli_10_4_x7" vType="passenger1" speedFactor="0.98" vaporized=""/>