<?xml version="1.0" encoding="UTF-8"?>

<!-- generated on 2025-10-22 09:43:15 by Eclipse SUMO libsumo Version 1.24.0
<libsumoConfiguration xmlns:xsi="http://www.w3.org/2001/XMLSchema-instance" xsi:noNamespaceSchemaLocation="http://sumo.dlr.de/xsd/libsumoConfiguration.xsd">

    <input>
        <net-file value="/home/julesbompard/Documents/Projets/sumo-experiments/src/sumo_experiments/preset_networks/bologna/acosta/acosta_buslanes.net.xml"/>
        <route-files value="/home/julesbompard/Documents/Projets/sumo-experiments/src/sumo_experiments/preset_networks/bologna/acosta/acosta_60621.rou.xml,/home/julesbompard/Documents/Projets/sumo-experiments/src/sumo_experiments/preset_networks/bologna/acosta/acosta_busses.rou.xml"/>
        <additional-files value="/home/julesbompard/Documents/Projets/sumo-experiments/src/sumo_experiments/preset_networks/bologna/acosta/acosta_tls.add.xml,/home/julesbompard/Documents/Projets/sumo-experiments/src/sumo_experiments/preset_networks/bologna/acosta/acosta_vtypes.add.xml,/home/julesbompard/Documents/Projets/sumo-experiments/src/sumo_experiments/preset_networks/bologna/acosta/acosta_detectors.add.xml,/home/julesbompard/Documents/Projets/sumo-experiments/src/sumo_experiments/preset_networks/bologna/acosta/acosta_bus_stops.add.xml"/>
    </input>

    <output>
        <tripinfo-output value="/home/julesbompard/Documents/Projets/sumo-experiments/src/sumo_experiments/preset_networks/bologna/acosta/tripinfos.xml"/>
    </output>

    <processing>
        <threads value="8"/>
        <time-to-teleport value="150"/>
    </processing>

    <report>
        <no-warnings value="true"/>
        <log value="/home/julesbompard/Documents/Projets/sumo-experiments/src/sumo_experiments/preset_networks/bologna/acosta/sumo_log.txt"/>
        <no-step-log value="true"/>
    </report>

    <random_number>
        <random value="true"/>
    </random_number>

    <gui_only>
        <gui-settings-file value="/home/julesbompard/Documents/Projets/sumo-experiments/src/sumo_experiments/preset_networks/bologna/acosta/settings.gui.xml"/>
    </gui_only>

</libsumoConfiguration>
-->

<tripinfos xmlns:xsi="http://www.w3.org/2001/XMLSchema-instance" xsi:noNamespaceSchemaLocation="http://sumo.dlr.de/xsd/tripinfo_file.xsd">
    <tripinfo id="Audinot_7_0_x7" depart="0.00" departLane="131_0" departPos="0.00" departSpeed="0.00" departDelay="0.00" arrival="88.00" arrivalLane="209_0" arrivalPos="395.59" arrivalSpeed="11.01" duration="88.00" routeLength="873.23" waitingTime="0.00" waitingCount="0" stopTime="0.00" timeLoss="10.03" rerouteNo="0" devices="tripinfo_Audinot_7_0_x7" vType="passenger3" speedFactor="0.83" vaporized=""/>
    <tripinfo id="Costa_12_0_x7" depart="0.00" departLane="78[0]_0" departPos="0.00" departSpeed="0.00" departDelay="0.00" arrival="100.00" arrivalLane="84_0" arrivalPos="116.41" arrivalSpeed="10.95" duration="100.00" routeLength="987.09" waitingTime="6.00" waitingCount="1" stopTime="0.00" timeLoss="21.16" rerouteNo="0" devices="tripinfo_Costa_12_0_x7" vType="passenger2b" speedFactor="0.93" vaporized="traci"/>
    <tripinfo id="Costa_12_11_x7" depart="28.00" departLane="78[0]_0" departPos="0.00" departSpeed="0.00" departDelay="0.00" arrival="100.00" arrivalLane="11_0" arrivalPos="32.65" arrivalSpeed="0.81" duration="72.00" routeLength="830.73" waitingTime="0.00" waitingCount="0" stopTime="0.00" timeLoss="12.51" rerouteNo="0" devices="tripinfo_Costa_12_11_x7" vType="passenger2a" speedFactor="1.04" vaporized="traci"/>
    <tripinfo id="Costa_12_13_x7" depart="33.00" departLane="78[0]_0" departPos="0.00" departSpeed="0.00" departDelay="0.00" arrival="100.00" arrivalLane="68_0" arrivalPos="52.39" arrivalSpeed="12.43" duration="67.00" routeLength="772.92" waitingTime="0.00" waitingCount="0" stopTime="0.00" timeLoss="8.45" rerouteNo="0" devices="tripinfo_Costa_12_13_x7" vType="passenger2b" speedFactor="0.99" vaporized="traci"/>
    <tripinfo id="Costa_12_14_x7" depart="36.00" departLane="78[0]_0" departPos="0.00" departSpeed="0.00" departDelay="0.00" arrival="100.00" arrivalLane="68_0" arrivalPos="31.73" arrivalSpeed="12.75" duration="64.00" routeLength="755.09" waitingTime="0.00" waitingCount="0" stopTime="0.00" timeLoss="14.14" rerouteNo="0" devices="tripinfo_Costa_12_14_x7" vType="passenger1" speedFactor="1.13" vaporized="traci"/>
    <tripinfo id="Costa_12_18_x7" depart="47.00" departLane="78[0]_0" departPos="0.00" departSpeed="0.00" departDelay="0.00" arrival="100.00" arrivalLane="79_0" arrivalPos="45.94" arrivalSpeed="15.85" duration="53.00" routeLength="582.71" waitingTime="0.00" waitingCount="0" stopTime="0.00" timeLoss="14.72" rerouteNo="0" devices="tripinfo_Costa_12_18_x7" vType="passenger5" speedFactor="1.16" vaporized="traci"/>
    <tripinfo id="Costa_12_23_x7" depart="60.00" departLane="78[0]_0" departPos="0.00" departSpeed="0.00" departDelay="0.00" arrival="100.00" arrivalLane=":20c_1_0" arrivalPos="1.01" arrivalSpeed="7.95" duration="40.00" routeLength="474.21" waitingTime="0.00" waitingCount="0" stopTime="0.00" timeLoss="5.80" rerouteNo="0" devices="tripinfo_Costa_12_23_x7" vType="passenger1" speedFactor="1.04" vaporized="traci"/>
    <tripinfo id="Costa_12_24_x7" depart="63.00" departLane="78[0]_0" departPos="0.00" departSpeed="0.00" departDelay="1.00" arrival="100.00" arrivalLane="56a_1" arrivalPos="4.30" arrivalSpeed="12.76" duration="37.00" routeLength="426.16" waitingTime="0.00" waitingCount="0" stopTime="0.00" timeLoss="4.96" rerouteNo="0" devices="tripinfo_Costa_12_24_x7" vType="passenger5" speedFactor="0.99" vaporized="traci"/>
    <tripinfo id="Costa_12_3_x7" depart="7.00" departLane="78[0]_0" departPos="0.00" departSpeed="0.00" departDelay="0.00" arrival="100.00" arrivalLane="84_0" arrivalPos="97.29" arrivalSpeed="13.52" duration="93.00" routeLength="967.97" waitingTime="5.00" waitingCount="1" stopTime="0.00" timeLoss="27.47" rerouteNo="0" devices="tripinfo_Costa_12_3_x7" vType="passenger3" speedFactor="1.10" vaporized="traci"/>
    <tripinfo id="Costa_12_7_x7" depart="18.00" departLane="78[0]_0" departPos="0.00" departSpeed="0.00" departDelay="0.00" arrival="100.00" arrivalLane="84_0" arrivalPos="54.76" arrivalSpeed="12.56" duration="82.00" routeLength="925.44" waitingTime="0.00" waitingCount="0" stopTime="0.00" timeLoss="9.29" rerouteNo="0" devices="tripinfo_Costa_12_7_x7" vType="passenger4" speedFactor="0.94" vaporized="traci"/>
    <tripinfo id="Costa_12_9_x7" depart="23.00" departLane="78[0]_0" departPos="0.00" departSpeed="0.00" departDelay="0.00" arrival="100.00" arrivalLane=":8_0_0" arrivalPos="6.32" arrivalSpeed="12.33" duration="77.00" routeLength="799.06" waitingTime="0.00" waitingCount="0" stopTime="0.00" timeLoss="14.31" rerouteNo="0" devices="tripinfo_Costa_12_9_x7" vType="passenger1" speedFactor="0.95" vaporized="traci"/>
    <tripinfo id="Costa_1_15_x7" depart="39.00" departLane="78[0]_0" departPos="0.00" departSpeed="0.00" departDelay="0.00" arrival="100.00" arrivalLane=":23_3_0" arrivalPos="27.29" arrivalSpeed="14.27" duration="61.00" routeLength="714.96" waitingTime="0.00" waitingCount="0" stopTime="0.00" timeLoss="8.88" rerouteNo="0" devices="tripinfo_Costa_1_15_x7" vType="passenger2a" speedFactor="1.03" vaporized="traci"/>
    <tripinfo id="Costa_1_17_x7" depart="45.00" departLane="78[0]_0" departPos="0.00" departSpeed="0.00" departDelay="1.00" arrival="100.00" arrivalLane="79_0" arrivalPos="17.22" arrivalSpeed="10.28" duration="55.00" routeLength="556.82" waitingTime="0.00" waitingCount="0" stopTime="0.00" timeLoss="11.73" rerouteNo="0" devices="tripinfo_Costa_1_17_x7" vType="passenger2a" speedFactor="0.98" vaporized="traci"/>
    <tripinfo id="Costa_1_4_x7" depart="10.00" departLane="78[0]_0" departPos="0.00" departSpeed="0.00" departDelay="0.00" arrival="100.00" arrivalLane="86_1" arrivalPos="136.96" arrivalSpeed="14.97" duration="90.00" routeLength="1004.68" waitingTime="4.00" waitingCount="1" stopTime="0.00" timeLoss="22.65" rerouteNo="0" devices="tripinfo_Costa_1_4_x7" vType="passenger2a" speedFactor="1.12" vaporized="traci"/>
    <tripinfo id="Costa_200_25_x7" depart="66.00" departLane="78[0]_0" departPos="0.00" departSpeed="0.00" departDelay="1.00" arrival="100.00" arrivalLane="78[0]_0" arrivalPos="404.00" arrivalSpeed="13.15" duration="34.00" routeLength="404.00" waitingTime="0.00" waitingCount="0" stopTime="0.00" timeLoss="6.55" rerouteNo="0" devices="tripinfo_Costa_200_25_x7" vType="passenger3" speedFactor="1.10" vaporized="traci"/>
    <tripinfo id="Costa_3_21_x7" depart="54.00" departLane="78[0]_0" departPos="0.00" departSpeed="0.00" departDelay="0.00" arrival="100.00" arrivalLane="21b_0" arrivalPos="35.59" arrivalSpeed="12.09" duration="46.00" routeLength="508.02" waitingTime="0.00" waitingCount="0" stopTime="0.00" timeLoss="7.96" rerouteNo="0" devices="tripinfo_Costa_3_21_x7" vType="passenger5" speedFactor="1.01" vaporized="traci"/>
    <tripinfo id="Costa_3_33_x7" depart="86.00" departLane="78[0]_0" departPos="0.00" departSpeed="0.00" departDelay="0.00" arrival="100.00" arrivalLane="78[0]_0" arrivalPos="144.85" arrivalSpeed="13.26" duration="14.00" routeLength="144.85" waitingTime="0.00" waitingCount="0" stopTime="0.00" timeLoss="4.92" rerouteNo="0" devices="tripinfo_Costa_3_33_x7" vType="passenger3" speedFactor="1.29" vaporized="traci"/>
    <tripinfo id="Costa_50_20_x7" depart="52.00" departLane="78[0]_0" departPos="0.00" departSpeed="0.00" departDelay="0.00" arrival="100.00" arrivalLane="21b_0" arrivalPos="79.33" arrivalSpeed="14.36" duration="48.00" routeLength="551.76" waitingTime="0.00" waitingCount="0" stopTime="0.00" timeLoss="7.42" rerouteNo="0" devices="tripinfo_Costa_50_20_x7" vType="passenger2b" speedFactor="1.04" vaporized="traci"/>
    <tripinfo id="Costa_50_31_x7" depart="81.00" departLane="78[0]_0" departPos="0.00" departSpeed="0.00" departDelay="1.00" arrival="100.00" arrivalLane="78[0]_0" arrivalPos="205.89" arrivalSpeed="13.26" duration="19.00" routeLength="205.89" waitingTime="0.00" waitingCount="0" stopTime="0.00" timeLoss="3.41" rerouteNo="0" devices="tripinfo_Costa_50_31_x7" vType="passenger2a" speedFactor="1.02" vaporized="traci"/>
    <tripinfo id="Costa_50_32_x7" depart="83.00" departLane="78[0]_0" departPos="0.00" departSpeed="0.00" departDelay="0.00" arrival="100.00" arrivalLane="78[0]_0" arrivalPos="169.27" arrivalSpeed="13.03" duration="17.00" routeLength="169.27" waitingTime="0.00" waitingCount="0" stopTime="0.00" timeLoss="3.36" rerouteNo="0" devices="tripinfo_Costa_50_32_x7" vType="passenger3" speedFactor="0.96" vaporized="traci"/>
    <tripinfo id="Costa_50_36_x7" depart="94.00" departLane="78[0]_0" departPos="0.00" departSpeed="0.00" departDelay="0.00" arrival="100.00" arrivalLane="78[0]_0" arrivalPos="32.16" arrivalSpeed="10.38" duration="6.00" routeLength="32.16" waitingTime="0.00" waitingCount="0" stopTime="0.00" timeLoss="2.40" rerouteNo="0" devices="tripinfo_Costa_50_36_x7" vType="passenger2a" speedFactor="0.89" vaporized="traci"/>
    <tripinfo id="Costa_50_6_x7" depart="15.00" departLane="78[0]_0" departPos="0.00" departSpeed="0.00" departDelay="0.00" arrival="100.00" arrivalLane="36_0" arrivalPos="74.43" arrivalSpeed="15.42" duration="85.00" routeLength="1087.18" waitingTime="0.00" waitingCount="0" stopTime="0.00" timeLoss="12.72" rerouteNo="0" devices="tripinfo_Costa_50_6_x7" vType="passenger3" speedFactor="1.13" vaporized="traci"/>
    <tripinfo id="Costa_700_16_x7" depart="42.00" departLane="78[0]_0" departPos="0.00" departSpeed="0.00" departDelay="1.00" arrival="100.00" arrivalLane="189[1][1]_0" arrivalPos="12.77" arrivalSpeed="13.57" duration="58.00" routeLength="657.42" waitingTime="0.00" waitingCount="0" stopTime="0.00" timeLoss="8.70" rerouteNo="0" devices="tripinfo_Costa_700_16_x7" vType="passenger4" speedFactor="0.99" vaporized="traci"/>
    <tripinfo id="Costa_700_30_x7" depart="78.00" departLane="78[0]_0" departPos="0.00" departSpeed="0.00" departDelay="0.00" arrival="100.00" arrivalLane="78[0]_0" arrivalPos="247.98" arrivalSpeed="12.84" duration="22.00" routeLength="247.98" waitingTime="0.00" waitingCount="0" stopTime="0.00" timeLoss="3.35" rerouteNo="0" devices="tripinfo_Costa_700_30_x7" vType="passenger1" speedFactor="1.01" vaporized="traci"/>
    <tripinfo id="Costa_700_35_x7" depart="91.00" departLane="78[0]_0" departPos="0.00" departSpeed="0.00" departDelay="0.00" arrival="100.00" arrivalLane="78[0]_0" arrivalPos="60.41" arrivalSpeed="11.15" duration="9.00" routeLength="60.41" waitingTime="0.00" waitingCount="0" stopTime="0.00" timeLoss="3.20" rerouteNo="0" devices="tripinfo_Costa_700_35_x7" vType="passenger2a" speedFactor="0.91" vaporized="traci"/>
    <tripinfo id="Costa_70_27_x7" depart="70.00" departLane="78[0]_0" departPos="0.00" departSpeed="0.00" departDelay="0.00" arrival="100.00" arrivalLane="78[0]_0" arrivalPos="357.87" arrivalSpeed="13.96" duration="30.00" routeLength="357.87" waitingTime="0.00" waitingCount="0" stopTime="0.00" timeLoss="3.68" rerouteNo="0" devices="tripinfo_Costa_70_27_x7" vType="passenger2a" speedFactor="1.02" vaporized="traci"/>
    <tripinfo id="Costa_70_34_x7" depart="88.00" departLane="78[0]_0" departPos="0.00" departSpeed="0.00" departDelay="0.00" arrival="100.00" arrivalLane="78[0]_0" arrivalPos="101.85" arrivalSpeed="15.11" duration="12.00" routeLength="101.85" waitingTime="0.00" waitingCount="0" stopTime="0.00" timeLoss="4.66" rerouteNo="0" devices="tripinfo_Costa_70_34_x7" vType="passenger2b" speedFactor="1.16" vaporized="traci"/>
    <tripinfo id="Costa_70_37_x7" depart="96.00" departLane="78[0]_0" departPos="0.00" departSpeed="0.00" departDelay="0.00" arrival="100.00" arrivalLane="78[0]_0" arrivalPos="8.47" arrivalSpeed="5.03" duration="4.00" routeLength="8.47" waitingTime="0.00" waitingCount="0" stopTime="0.00" timeLoss="2.35" rerouteNo="0" devices="tripinfo_Costa_70_37_x7" vType="passenger1" speedFactor="0.93" vaporized="traci"/>
    <tripinfo id="Pepoli_10_10_x7" depart="17.00" departLane="210_0" departPos="0.00" departSpeed="0.00" departDelay="0.00" arrival="100.00" arrivalLane="201_2" arrivalPos="41.81" arrivalSpeed="11.29" duration="83.00" routeLength="568.55" waitingTime="25.00" waitingCount="1" stopTime="0.00" timeLoss="35.95" rerouteNo="0" devices="tripinfo_Pepoli_10_10_x7" vType="passenger2b" speedFactor="0.89" vaporized="traci"/>
    <tripinfo id="Pepoli_10_11_x7" depart="18.00" departLane="210_1" departPos="0.00" departSpeed="0.00" departDelay="0.00" arrival="100.00" arrivalLane="201_1" arrivalPos="49.95" arrivalSpeed="14.46" duration="82.00" routeLength="576.69" waitingTime="29.00" waitingCount="1" stopTime="0.00" timeLoss="41.47" rerouteNo="0" devices="tripinfo_Pepoli_10_11_x7" vType="passenger1" speedFactor="1.05" vaporized="traci"/>
    <tripinfo id="Pepoli_10_19_x7" depart="32.00" departLane="210_0" departPos="0.00" departSpeed="0.00" departDelay="0.00" arrival="100.00" arrivalLane="201_1" arrivalPos="18.90" arrivalSpeed="13.39" duration="68.00" routeLength="545.64" waitingTime="16.00" waitingCount="1" stopTime="0.00" timeLoss="29.79" rerouteNo="0" devices="tripinfo_Pepoli_10_19_x7" vType="passenger1" speedFactor="1.06" vaporized="traci"/>
    <tripinfo id="Pepoli_10_20_x7" depart="34.00" departLane="210_1" departPos="0.00" departSpeed="0.00" departDelay="0.00" arrival="100.00" arrivalLane="43[1]_0" arrivalPos="79.51" arrivalSpeed="0.08" duration="66.00" routeLength="493.54" waitingTime="14.00" waitingCount="2" stopTime="0.00" timeLoss="27.33" rerouteNo="0" devices="tripinfo_Pepoli_10_20_x7" vType="passenger5" speedFactor="0.94" vaporized="traci"/>
    <tripinfo id="Pepoli_10_22_x7" depart="37.00" departLane="210_1" departPos="0.00" departSpeed="0.00" departDelay="0.00" arrival="100.00" arrivalLane="43[1]_2" arrivalPos="79.50" arrivalSpeed="0.07" duration="63.00" routeLength="493.53" waitingTime="13.00" waitingCount="3" stopTime="0.00" timeLoss="29.67" rerouteNo="0" devices="tripinfo_Pepoli_10_22_x7" vType="passenger2b" speedFactor="1.10" vaporized="traci"/>
    <tripinfo id="Pepoli_10_27_x7" depart="46.00" departLane="210_1" departPos="0.00" departSpeed="0.00" departDelay="0.00" arrival="100.00" arrivalLane="43[1]_1" arrivalPos="79.51" arrivalSpeed="0.01" duration="54.00" routeLength="493.54" waitingTime="2.00" waitingCount="2" stopTime="0.00" timeLoss="17.08" rerouteNo="0" devices="tripinfo_Pepoli_10_27_x7" vType="passenger2a" speedFactor="0.99" vaporized="traci"/>
    <tripinfo id="Pepoli_10_31_x7" depart="53.00" departLane="210_0" departPos="0.00" departSpeed="0.00" departDelay="0.00" arrival="100.00" arrivalLane="43[1]_1" arrivalPos="32.14" arrivalSpeed="1.64" duration="47.00" routeLength="446.17" waitingTime="0.00" waitingCount="0" stopTime="0.00" timeLoss="9.69" rerouteNo="0" devices="tripinfo_Pepoli_10_31_x7" vType="passenger1" speedFactor="0.88" vaporized="traci"/>
    <tripinfo id="Pepoli_10_34_x7" depart="58.00" departLane="210_1" departPos="0.00" departSpeed="0.00" departDelay="0.00" arrival="100.00" arrivalLane="43[1]_1" arrivalPos="63.76" arrivalSpeed="3.99" duration="42.00" routeLength="477.79" waitingTime="0.00" waitingCount="0" stopTime="0.00" timeLoss="6.91" rerouteNo="0" devices="tripinfo_Pepoli_10_34_x7" vType="passenger1" speedFactor="1.01" vaporized="traci"/>
    <tripinfo id="Pepoli_10_4_x7" depart="6.00" departLane="210_0" departPos="0.00" departSpeed="0.00" departDelay="0.00" arrival="100.00" arrivalLane="201_0" arrivalPos="74.28" arrivalSpeed="14.13" duration="94.00" routeLength="601.02" waitingTime="41.00" waitingCount="1" stopTime="0.00" timeLoss="52.36" rerouteNo="0" devices="tripinfo_Pepoli_10_4_x7" vType="passenger1" speedFactor="1.06" vaporized="traci"/>
    <tripinfo id="Pepoli_10_50_x7" depart="85.00" departLane="210_1" departPos="0.00" departSpeed="0.00" departDelay="0.00" arrival="100.00" arrivalLane="210_1" arrivalPos="150.61" arrivalSpeed="13.47" duration="15.00" routeLength="150.61" waitingTime="0.00" waitingCount="0" stopTime="0.00" timeLoss="3.07" rerouteNo="0" devices="tripinfo_Pepoli_10_50_x7" vType="passenger1" speedFactor="0.99" vaporized="traci"/>
    <tripinfo id="Pepoli_10_55_x7" depart="94.00" departLane="210_0" departPos="0.00" departSpeed="0.00" departDelay="0.00" arrival="100.00" arrivalLane="210_0" arrivalPos="31.41" arrivalSpeed="10.38" duration="6.00" routeLength="31.41" waitingTime="0.00" waitingCount="0" stopTime="0.00" timeLoss="2.81" rerouteNo="0" devices="tripinfo_Pepoli_10_55_x7" vType="passenger3" speedFactor="1.03" vaporized="traci"/>
    <tripinfo id="Pepoli_11_17_x7" depart="29.00" departLane="210_1" departPos="0.00" departSpeed="0.00" departDelay="0.00" arrival="100.00" arrivalLane="201_0" arrivalPos="26.61" arrivalSpeed="12.45" duration="71.00" routeLength="553.35" waitingTime="18.00" waitingCount="1" stopTime="0.00" timeLoss="27.71" rerouteNo="0" devices="tripinfo_Pepoli_11_17_x7" vType="passenger2b" speedFactor="0.94" vaporized="traci"/>
    <tripinfo id="Pepoli_11_29_x7" depart="49.00" departLane="210_1" departPos="0.00" departSpeed="0.00" departDelay="0.00" arrival="100.00" arrivalLane="43[1]_2" arrivalPos="73.22" arrivalSpeed="0.59" duration="51.00" routeLength="487.25" waitingTime="1.00" waitingCount="1" stopTime="0.00" timeLoss="15.02" rerouteNo="0" devices="tripinfo_Pepoli_11_29_x7" vType="passenger1" speedFactor="1.00" vaporized="traci"/>
    <tripinfo id="Pepoli_11_30_x7" depart="51.00" departLane="210_1" departPos="0.00" departSpeed="0.00" departDelay="0.00" arrival="100.00" arrivalLane="43[1]_1" arrivalPos="73.36" arrivalSpeed="1.46" duration="49.00" routeLength="487.39" waitingTime="0.00" waitingCount="0" stopTime="0.00" timeLoss="13.85" rerouteNo="0" devices="tripinfo_Pepoli_11_30_x7" vType="passenger1" speedFactor="1.03" vaporized="traci"/>
    <tripinfo id="Pepoli_11_35_x7" depart="61.00" departLane="210_1" departPos="0.00" departSpeed="0.00" departDelay="1.00" arrival="100.00" arrivalLane="43[1]_1" arrivalPos="40.44" arrivalSpeed="12.85" duration="39.00" routeLength="454.47" waitingTime="0.00" waitingCount="0" stopTime="0.00" timeLoss="4.92" rerouteNo="0" devices="tripinfo_Pepoli_11_35_x7" vType="passenger2a" speedFactor="0.99" vaporized="traci"/>
    <tripinfo id="Pepoli_11_37_x7" depart="63.00" departLane="210_1" departPos="0.00" departSpeed="0.00" departDelay="0.00" arrival="100.00" arrivalLane="43[1]_2" arrivalPos="60.76" arrivalSpeed="8.36" duration="37.00" routeLength="474.79" waitingTime="1.00" waitingCount="1" stopTime="0.00" timeLoss="7.14" rerouteNo="0" devices="tripinfo_Pepoli_11_37_x7" vType="passenger4" speedFactor="1.18" vaporized="traci"/>
    <tripinfo id="Pepoli_11_3_x7" depart="5.00" departLane="210_1" departPos="0.00" departSpeed="0.00" departDelay="0.00" arrival="100.00" arrivalLane="201_0" arrivalPos="48.11" arrivalSpeed="13.16" duration="95.00" routeLength="574.85" waitingTime="39.00" waitingCount="1" stopTime="0.00" timeLoss="50.78" rerouteNo="0" devices="tripinfo_Pepoli_11_3_x7" vType="passenger5" speedFactor="0.96" vaporized="traci"/>
    <tripinfo id="Pepoli_11_41_x7" depart="70.00" departLane="210_1" departPos="0.00" departSpeed="0.00" departDelay="0.00" arrival="100.00" arrivalLane="210_0" arrivalPos="358.79" arrivalSpeed="12.87" duration="30.00" routeLength="358.79" waitingTime="0.00" waitingCount="0" stopTime="0.00" timeLoss="3.82" rerouteNo="0" devices="tripinfo_Pepoli_11_41_x7" vType="passenger2b" speedFactor="1.03" vaporized="traci"/>
    <tripinfo id="Pepoli_11_45_x7" depart="77.00" departLane="210_1" departPos="0.00" departSpeed="0.00" departDelay="0.00" arrival="100.00" arrivalLane="210_0" arrivalPos="229.72" arrivalSpeed="11.97" duration="23.00" routeLength="229.72" waitingTime="0.00" waitingCount="0" stopTime="0.00" timeLoss="3.46" rerouteNo="0" devices="tripinfo_Pepoli_11_45_x7" vType="passenger3" speedFactor="0.89" vaporized="traci"/>
    <tripinfo id="Pepoli_11_52_x7" depart="89.00" departLane="210_1" departPos="0.00" departSpeed="0.00" departDelay="0.00" arrival="100.00" arrivalLane="210_1" arrivalPos="106.14" arrivalSpeed="14.39" duration="11.00" routeLength="106.14" waitingTime="0.00" waitingCount="0" stopTime="0.00" timeLoss="2.83" rerouteNo="0" devices="tripinfo_Pepoli_11_52_x7" vType="passenger3" speedFactor="1.07" vaporized="traci"/>
    <tripinfo id="Pepoli_11_54_x7" depart="92.00" departLane="210_1" departPos="0.00" departSpeed="0.00" departDelay="0.00" arrival="100.00" arrivalLane="210_1" arrivalPos="58.43" arrivalSpeed="13.46" duration="8.00" routeLength="58.43" waitingTime="0.00" waitingCount="0" stopTime="0.00" timeLoss="3.45" rerouteNo="0" devices="tripinfo_Pepoli_11_54_x7" vType="passenger5" speedFactor="1.18" vaporized="traci"/>
    <tripinfo id="Pepoli_11_58_x7" depart="99.00" departLane="210_1" departPos="0.00" departSpeed="0.00" departDelay="0.00" arrival="100.00" arrivalLane="210_1" arrivalPos="0.00" arrivalSpeed="0.00" duration="1.00" routeLength="0.00" waitingTime="0.00" waitingCount="0" stopTime="0.00" timeLoss="0.00" rerouteNo="0" devices="tripinfo_Pepoli_11_58_x7" vType="passenger1" speedFactor="0.81" vaporized="traci"/>
    <tripinfo id="Pepoli_11_6_x7" depart="10.00" departLane="210_1" departPos="0.00" departSpeed="0.00" departDelay="0.00" arrival="100.00" arrivalLane="201_1" arrivalPos="83.08" arrivalSpeed="16.43" duration="90.00" routeLength="609.82" waitingTime="40.00" waitingCount="1" stopTime="0.00" timeLoss="52.51" rerouteNo="0" devices="tripinfo_Pepoli_11_6_x7" vType="passenger1" speedFactor="1.20" vaporized="traci"/>
    <tripinfo id="Pepoli_11_8_x7" depart="13.00" departLane="210_1" departPos="0.00" departSpeed="0.00" departDelay="0.00" arrival="100.00" arrivalLane="201_2" arrivalPos="19.84" arrivalSpeed="12.06" duration="87.00" routeLength="546.58" waitingTime="32.00" waitingCount="2" stopTime="0.00" timeLoss="46.08" rerouteNo="0" devices="tripinfo_Pepoli_11_8_x7" vType="passenger2a" speedFactor="0.99" vaporized="traci"/>
    <tripinfo id="Pepoli_11_9_x7" depart="15.00" departLane="210_1" departPos="0.00" departSpeed="0.00" departDelay="0.00" arrival="100.00" arrivalLane="201_2" arrivalPos="78.26" arrivalSpeed="13.71" duration="85.00" routeLength="605.00" waitingTime="30.00" waitingCount="1" stopTime="0.00" timeLoss="41.26" rerouteNo="0" devices="tripinfo_Pepoli_11_9_x7" vType="passenger2b" speedFactor="1.02" vaporized="traci"/>
    <tripinfo id="Pepoli_3_12_x7" depart="20.00" departLane="210_2" departPos="0.00" departSpeed="0.00" departDelay="0.00" arrival="100.00" arrivalLane=":48_2_0" arrivalPos="26.30" arrivalSpeed="11.36" duration="80.00" routeLength="916.98" waitingTime="0.00" waitingCount="0" stopTime="0.00" timeLoss="12.12" rerouteNo="0" devices="tripinfo_Pepoli_3_12_x7" vType="ignoring3" speedFactor="1.00" vaporized="traci"/>
    <tripinfo id="Pepoli_3_14_x7" depart="24.00" departLane="210_2" departPos="0.00" departSpeed="0.00" departDelay="0.00" arrival="100.00" arrivalLane="57[1]_0" arrivalPos="29.17" arrivalSpeed="4.16" duration="76.00" routeLength="890.16" waitingTime="0.00" waitingCount="0" stopTime="0.00" timeLoss="10.36" rerouteNo="0" devices="tripinfo_Pepoli_3_14_x7" vType="ignoring1" speedFactor="1.00" vaporized="traci"/>
    <tripinfo id="Pepoli_3_2_x7" depart="3.00" departLane="210_2" departPos="0.00" departSpeed="0.00" departDelay="0.00" arrival="100.00" arrivalLane="62_0" arrivalPos="137.35" arrivalSpeed="13.39" duration="97.00" routeLength="1062.30" waitingTime="6.00" waitingCount="1" stopTime="0.00" timeLoss="18.71" rerouteNo="0" devices="tripinfo_Pepoli_3_2_x7" vType="ignoring1" speedFactor="1.00" vaporized="traci"/>
    <tripinfo id="Pepoli_3_43_x7" depart="73.00" departLane="210_2" departPos="0.00" departSpeed="0.00" departDelay="0.00" arrival="100.00" arrivalLane="210_2" arrivalPos="300.18" arrivalSpeed="13.42" duration="27.00" routeLength="300.18" waitingTime="0.00" waitingCount="0" stopTime="0.00" timeLoss="4.39" rerouteNo="0" devices="tripinfo_Pepoli_3_43_x7" vType="ignoring1" speedFactor="1.00" vaporized="traci"/>
    <tripinfo id="Pepoli_8_21_x7" depart="36.00" departLane="210_0" departPos="0.00" departSpeed="0.00" departDelay="0.00" arrival="100.00" arrivalLane="43[1]_0" arrivalPos="73.38" arrivalSpeed="0.12" duration="64.00" routeLength="487.41" waitingTime="6.00" waitingCount="1" stopTime="0.00" timeLoss="19.11" rerouteNo="0" devices="tripinfo_Pepoli_8_21_x7" vType="passenger2b" speedFactor="0.80" vaporized="traci"/>
    <tripinfo id="Pepoli_8_23_x7" depart="39.00" departLane="210_0" departPos="0.00" departSpeed="0.00" departDelay="0.00" arrival="100.00" arrivalLane="43[1]_0" arrivalPos="66.43" arrivalSpeed="3.84" duration="61.00" routeLength="480.46" waitingTime="5.00" waitingCount="1" stopTime="0.00" timeLoss="27.52" rerouteNo="0" devices="tripinfo_Pepoli_8_23_x7" vType="passenger4" speedFactor="1.07" vaporized="traci"/>
    <tripinfo id="Pepoli_8_25_x7" depart="42.00" departLane="210_0" departPos="0.00" departSpeed="0.00" departDelay="0.00" arrival="100.00" arrivalLane="43[1]_0" arrivalPos="54.59" arrivalSpeed="5.48" duration="58.00" routeLength="468.62" waitingTime="4.00" waitingCount="1" stopTime="0.00" timeLoss="22.24" rerouteNo="0" devices="tripinfo_Pepoli_8_25_x7" vType="passenger2a" speedFactor="0.97" vaporized="traci"/>
    <tripinfo id="Pepoli_8_28_x7" depart="48.00" departLane="210_0" departPos="0.00" departSpeed="0.00" departDelay="0.00" arrival="100.00" arrivalLane="43[1]_0" arrivalPos="42.54" arrivalSpeed="2.69" duration="52.00" routeLength="456.57" waitingTime="3.00" waitingCount="1" stopTime="0.00" timeLoss="21.73" rerouteNo="0" devices="tripinfo_Pepoli_8_28_x7" vType="passenger1" speedFactor="1.12" vaporized="traci"/>
    <tripinfo id="Pepoli_8_44_x7" depart="75.00" departLane="210_0" departPos="0.00" departSpeed="0.00" departDelay="0.00" arrival="100.00" arrivalLane="210_0" arrivalPos="304.82" arrivalSpeed="14.38" duration="25.00" routeLength="304.82" waitingTime="0.00" waitingCount="0" stopTime="0.00" timeLoss="3.93" rerouteNo="0" devices="tripinfo_Pepoli_8_44_x7" vType="passenger1" speedFactor="1.09" vaporized="traci"/>
    <tripinfo id="Pepoli_8_48_x7" depart="82.00" departLane="210_0" departPos="0.00" departSpeed="0.00" departDelay="0.00" arrival="100.00" arrivalLane="210_0" arrivalPos="174.20" arrivalSpeed="12.64" duration="18.00" routeLength="174.20" waitingTime="0.00" waitingCount="0" stopTime="0.00" timeLoss="3.78" rerouteNo="0" devices="tripinfo_Pepoli_8_48_x7" vType="passenger1" speedFactor="0.95" vaporized="traci"/>
    <tripinfo id="Pepoli_8_51_x7" depart="87.00" departLane="210_0" departPos="0.00" departSpeed="0.00" departDelay="0.00" arrival="100.00" arrivalLane="210_0" arrivalPos="117.78" arrivalSpeed="13.15" duration="13.00" routeLength="117.78" waitingTime="0.00" waitingCount="0" stopTime="0.00" timeLoss="3.64" rerouteNo="0" devices="tripinfo_Pepoli_8_51_x7" vType="passenger1" speedFactor="1.01" vaporized="traci"/>
    <tripinfo id="Silvani_11_0_x7" depart="0.00" departLane="203[0]_0" departPos="0.00" departSpeed="0.00" departDelay="0.00" arrival="100.00" arrivalLane="114_0" arrivalPos="337.89" arrivalSpeed="10.59" duration="100.00" routeLength="759.44" waitingTime="22.00" waitingCount="1" stopTime="0.00" timeLoss="33.32" rerouteNo="0" devices="tripinfo_Silvani_11_0_x7" vType="passenger2b" speedFactor="0.83" vaporized="traci"/>
    <tripinfo id="Silvani_11_12_x7" depart="28.00" departLane="203[0]_0" departPos="0.00" departSpeed="0.00" departDelay="0.00" arrival="100.00" arrivalLane="203[0]_0" arrivalPos="388.19" arrivalSpeed="0.00" duration="72.00" routeLength="388.19" waitingTime="27.00" waitingCount="2" stopTime="0.00" timeLoss="41.91" rerouteNo="0" devices="tripinfo_Silvani_11_12_x7" vType="passenger2a" speedFactor="0.96" vaporized="traci"/>