<?xml version="1.0" encoding="UTF-8"?>

<!-- generated on 2025-10-21 08:40:24 by Eclipse SUMO libsumo Version 1.24.0
<libsumoConfiguration xmlns:xsi="http://www.w3.org/2001/XMLSchema-instance" xsi:noNamespaceSchemaLocation="http://sumo.dlr.de/xsd/libsumoConfiguration.xsd">

    <input>
        <net-file value="/home/julesbompard/Documents/Projets/sumo-experiments/src/sumo_experiments/preset_networks/bologna/acosta/acosta_buslanes.net.xml"/>
        <route-files value="/home/julesbompard/Documents/Projets/sumo-experiments/src/sumo_experiments/preset_networks/bologna/acosta/acosta_47526.rou.xml,/home/julesbompard/Documents/Projets/sumo-experiments/src/sumo_experiments/preset_networks/bologna/acosta/acosta_busses.rou.xml"/>
        <additional-files value="/home/julesbompard/Documents/Projets/sumo-experiments/src/sumo_experiments/preset_networks/bologna/acosta/acosta_tls.add.xml,/home/julesbompard/Documents/Projets/sumo-experiments/src/sumo_experiments/preset_networks/bologna/acosta/acosta_vtypes.add.xml,/home/julesbompard/Documents/Projets/sumo-experiments/src/sumo_experiments/preset_networks/bologna/acosta/acosta_detectors.add.xml,/home/julesbompard/Documents/Projets/sumo-experiments/src/sumo_experiments/preset_networks/bologna/acosta/acosta_bus_stops.add.xml"/>
    </input>

    <output>
        <tripinfo-output value="/home/julesbompard/Documents/Projets/sumo-experiments/src/sumo_experiments/preset_networks/bologna/acosta/tripinfos.xml"/>
    </output>

    <processing>
        <threads value="8"/>
        <time-to-teleport value="150"/>
    </processing>

    <report>
        <no-warnings value="true"/>
        <log value="/home/julesbompard/Documents/Projets/sumo-experiments/src/sumo_experiments/preset_networks/bologna/acosta/sumo_log.txt"/>
        <no-step-log value="true"/>
    </report>

    <random_number>
        <random value="true"/>
    </random_number>

    <gui_only>
        <gui-settings-file value="/home/julesbompard/Documents/Projets/sumo-experiments/src/sumo_experiments/preset_networks/bologna/acosta/settings.gui.xml"/>
    </gui_only>

</libsumoConfiguration>
-->

<tripinfos xmlns:xsi="http://www.w3.org/2001/XMLSchema-instance" xsi:noNamespaceSchemaLocation="http://sumo.dlr.de/xsd/tripinfo_file.xsd">
    <tripinfo id="Togliatti_12_15_x7" depart="21.00" departLane="85_2" departPos="0.00" departSpeed="0.00" departDelay="0.00" arrival="89.00" arrivalLane="136_0" arrivalPos="186.20" arrivalSpeed="15.76" duration="68.00" routeLength="909.95" waitingTime="0.00" waitingCount="0" stopTime="0.00" timeLoss="10.47" rerouteNo="0" devices="tripinfo_Togliatti_12_15_x7" vType="passenger3" speedFactor="1.17" vaporized=""/>
    <tripinfo id="Silvani_11_1_x7" depart="2.00" departLane="203[0]_0" departPos="0.00" departSpeed="0.00" departDelay="0.00" arrival="90.00" arrivalLane="114_0" arrivalPos="692.70" arrivalSpeed="13.85" duration="88.00" routeLength="1114.25" waitingTime="1.00" waitingCount="1" stopTime="0.00" timeLoss="8.05" rerouteNo="0" devices="tripinfo_Silvani_11_1_x7" vType="passenger5" speedFactor="1.01" vaporized=""/>
    <tripinfo id="Silvani_11_0_x7" depart="0.00" departLane="203[0]_0" departPos="0.00" departSpeed="0.00" departDelay="0.00" arrival="92.00" arrivalLane="114_0" arrivalPos="692.70" arrivalSpeed="12.81" duration="92.00" routeLength="1114.25" waitingTime="0.00" waitingCount="0" stopTime="0.00" timeLoss="7.99" rerouteNo="0" devices="tripinfo_Silvani_11_0_x7" vType="passenger2b" speedFactor="0.96" vaporized=""/>
    <tripinfo id="Audinot_7_0_x7" depart="0.00" departLane="131_0" departPos="0.00" departSpeed="0.00" departDelay="0.00" arrival="94.00" arrivalLane="209_0" arrivalPos="395.59" arrivalSpeed="9.37" duration="94.00" routeLength="873.23" waitingTime="0.00" waitingCount="0" stopTime="0.00" timeLoss="10.34" rerouteNo="0" devices="tripinfo_Audinot_7_0_x7" vType="passenger2b" speedFactor="0.77" vaporized=""/>
    <tripinfo id="Audinot_10_2_x7" depart="42.00" departLane="131_0" departPos="0.00" departSpeed="0.00" departDelay="0.00" arrival="100.00" arrivalLane=":37_0_2" arrivalPos="1.65" arrivalSpeed="11.63" duration="58.00" routeLength="589.65" waitingTime="0.00" waitingCount="0" stopTime="0.00" timeLoss="14.36" rerouteNo="0" devices="tripinfo_Audinot_10_2_x7" vType="passenger2a" speedFactor="1.02" vaporized="traci"/>
    <tripinfo id="Audinot_12_1_x7" depart="21.00" departLane="131_0" departPos="0.00" departSpeed="0.00" departDelay="0.00" arrival="100.00" arrivalLane="159_0" arrivalPos="9.91" arrivalSpeed="9.31" duration="79.00" routeLength="925.73" waitingTime="0.00" waitingCount="0" stopTime="0.00" timeLoss="9.86" rerouteNo="0" devices="tripinfo_Audinot_12_1_x7" vType="ignoring1" speedFactor="1.00" vaporized="traci"/>
    <tripinfo id="Audinot_12_3_x7" depart="64.00" departLane="131_0" departPos="0.00" departSpeed="0.00" departDelay="0.00" arrival="100.00" arrivalLane="65_0" arrivalPos="51.89" arrivalSpeed="13.71" duration="36.00" routeLength="394.50" waitingTime="0.00" waitingCount="0" stopTime="0.00" timeLoss="5.84" rerouteNo="0" devices="tripinfo_Audinot_12_3_x7" vType="ignoring1" speedFactor="1.00" vaporized="traci"/>
    <tripinfo id="Costa_12_11_x7" depart="28.00" departLane="78[0]_0" departPos="0.00" departSpeed="0.00" departDelay="0.00" arrival="100.00" arrivalLane="11_0" arrivalPos="28.62" arrivalSpeed="1.45" duration="72.00" routeLength="826.70" waitingTime="2.00" waitingCount="1" stopTime="0.00" timeLoss="14.99" rerouteNo="0" devices="tripinfo_Costa_12_11_x7" vType="passenger4" speedFactor="1.08" vaporized="traci"/>
    <tripinfo id="Costa_12_13_x7" depart="33.00" departLane="78[0]_0" departPos="0.00" departSpeed="0.00" departDelay="0.00" arrival="100.00" arrivalLane="11_0" arrivalPos="20.52" arrivalSpeed="0.94" duration="67.00" routeLength="821.43" waitingTime="0.00" waitingCount="0" stopTime="0.00" timeLoss="11.65" rerouteNo="0" devices="tripinfo_Costa_12_13_x7" vType="passenger3" speedFactor="1.10" vaporized="traci"/>
    <tripinfo id="Costa_12_1_x7" depart="4.00" departLane="78[0]_0" departPos="0.00" departSpeed="0.00" departDelay="2.00" arrival="100.00" arrivalLane="180_0" arrivalPos="125.46" arrivalSpeed="13.18" duration="96.00" routeLength="1135.17" waitingTime="0.00" waitingCount="0" stopTime="0.00" timeLoss="11.49" rerouteNo="0" devices="tripinfo_Costa_12_1_x7" vType="passenger2b" speedFactor="1.00" vaporized="traci"/>
    <tripinfo id="Costa_12_23_x7" depart="60.00" departLane="78[0]_0" departPos="0.00" departSpeed="0.00" departDelay="0.00" arrival="100.00" arrivalLane=":20b_0_1" arrivalPos="5.73" arrivalSpeed="11.35" duration="40.00" routeLength="470.84" waitingTime="0.00" waitingCount="0" stopTime="0.00" timeLoss="10.98" rerouteNo="0" devices="tripinfo_Costa_12_23_x7" vType="passenger1" speedFactor="1.22" vaporized="traci"/>
    <tripinfo id="Costa_12_29_x7" depart="75.00" departLane="78[0]_0" departPos="0.00" departSpeed="0.00" departDelay="0.00" arrival="100.00" arrivalLane="78[0]_0" arrivalPos="265.96" arrivalSpeed="11.56" duration="25.00" routeLength="265.96" waitingTime="0.00" waitingCount="0" stopTime="0.00" timeLoss="3.37" rerouteNo="0" devices="tripinfo_Costa_12_29_x7" vType="passenger2b" speedFactor="0.93" vaporized="traci"/>
    <tripinfo id="Costa_12_3_x7" depart="7.00" departLane="78[0]_0" departPos="0.00" departSpeed="0.00" departDelay="0.00" arrival="100.00" arrivalLane=":9_8_0" arrivalPos="5.18" arrivalSpeed="3.43" duration="93.00" routeLength="837.18" waitingTime="17.00" waitingCount="1" stopTime="0.00" timeLoss="38.59" rerouteNo="0" devices="tripinfo_Costa_12_3_x7" vType="passenger3" speedFactor="1.15" vaporized="traci"/>
    <tripinfo id="Costa_1_15_x7" depart="39.00" departLane="78[0]_0" departPos="0.00" departSpeed="0.00" departDelay="0.00" arrival="100.00" arrivalLane=":23_3_0" arrivalPos="18.02" arrivalSpeed="13.74" duration="61.00" routeLength="708.52" waitingTime="0.00" waitingCount="0" stopTime="0.00" timeLoss="7.90" rerouteNo="0" devices="tripinfo_Costa_1_15_x7" vType="passenger4" speedFactor="0.99" vaporized="traci"/>
    <tripinfo id="Costa_1_4_x7" depart="10.00" departLane="78[0]_0" departPos="0.00" departSpeed="0.00" departDelay="0.00" arrival="100.00" arrivalLane=":9_9_0" arrivalPos="13.75" arrivalSpeed="5.44" duration="90.00" routeLength="848.58" waitingTime="17.00" waitingCount="1" stopTime="0.00" timeLoss="32.21" rerouteNo="0" devices="tripinfo_Costa_1_4_x7" vType="passenger1" speedFactor="1.11" vaporized="traci"/>
    <tripinfo id="Costa_200_25_x7" depart="65.00" departLane="78[0]_0" departPos="0.00" departSpeed="0.00" departDelay="0.00" arrival="100.00" arrivalLane="78[0]_0" arrivalPos="377.60" arrivalSpeed="11.45" duration="35.00" routeLength="377.60" waitingTime="0.00" waitingCount="0" stopTime="0.00" timeLoss="4.00" rerouteNo="0" devices="tripinfo_Costa_200_25_x7" vType="passenger3" speedFactor="0.91" vaporized="traci"/>
    <tripinfo id="Costa_3_33_x7" depart="86.00" departLane="78[0]_0" departPos="0.00" departSpeed="0.00" departDelay="0.00" arrival="100.00" arrivalLane="78[0]_0" arrivalPos="138.44" arrivalSpeed="14.28" duration="14.00" routeLength="138.44" waitingTime="0.00" waitingCount="0" stopTime="0.00" timeLoss="3.43" rerouteNo="0" devices="tripinfo_Costa_3_33_x7" vType="passenger2a" speedFactor="1.04" vaporized="traci"/>
    <tripinfo id="Costa_3_38_x7" depart="99.00" departLane="78[0]_0" departPos="0.00" departSpeed="0.00" departDelay="0.00" arrival="100.00" arrivalLane="78[0]_0" arrivalPos="0.00" arrivalSpeed="0.00" duration="1.00" routeLength="0.00" waitingTime="0.00" waitingCount="0" stopTime="0.00" timeLoss="0.00" rerouteNo="0" devices="tripinfo_Costa_3_38_x7" vType="passenger2b" speedFactor="1.06" vaporized="traci"/>
    <tripinfo id="Costa_50_22_x7" depart="57.00" departLane="78[0]_0" departPos="0.00" departSpeed="0.00" departDelay="0.00" arrival="100.00" arrivalLane="m1_0" arrivalPos="15.76" arrivalSpeed="4.77" duration="43.00" routeLength="463.62" waitingTime="0.00" waitingCount="0" stopTime="0.00" timeLoss="6.86" rerouteNo="0" devices="tripinfo_Costa_50_22_x7" vType="passenger3" speedFactor="0.96" vaporized="traci"/>
    <tripinfo id="Costa_50_6_x7" depart="15.00" departLane="78[0]_0" departPos="0.00" departSpeed="0.00" departDelay="0.00" arrival="100.00" arrivalLane=":12_2_0" arrivalPos="4.82" arrivalSpeed="0.05" duration="85.00" routeLength="755.66" waitingTime="10.00" waitingCount="2" stopTime="0.00" timeLoss="24.72" rerouteNo="0" devices="tripinfo_Costa_50_6_x7" vType="passenger1" speedFactor="0.94" vaporized="traci"/>
    <tripinfo id="Costa_50_8_x7" depart="20.00" departLane="78[0]_0" departPos="0.00" departSpeed="0.00" departDelay="0.00" arrival="100.00" arrivalLane="103_1" arrivalPos="135.95" arrivalSpeed="0.92" duration="80.00" routeLength="748.90" waitingTime="8.00" waitingCount="1" stopTime="0.00" timeLoss="32.68" rerouteNo="0" devices="tripinfo_Costa_50_8_x7" vType="passenger4" speedFactor="1.18" vaporized="traci"/>
    <tripinfo id="Costa_700_16_x7" depart="42.00" departLane="78[0]_0" departPos="0.00" departSpeed="0.00" departDelay="1.00" arrival="100.00" arrivalLane="78[1][1]_0" arrivalPos="51.54" arrivalSpeed="10.63" duration="58.00" routeLength="564.90" waitingTime="0.00" waitingCount="0" stopTime="0.00" timeLoss="8.22" rerouteNo="0" devices="tripinfo_Costa_700_16_x7" vType="passenger4" speedFactor="0.85" vaporized="traci"/>
    <tripinfo id="Costa_700_30_x7" depart="78.00" departLane="78[0]_0" departPos="0.00" departSpeed="0.00" departDelay="0.00" arrival="100.00" arrivalLane="78[0]_0" arrivalPos="223.91" arrivalSpeed="12.59" duration="22.00" routeLength="223.91" waitingTime="0.00" waitingCount="0" stopTime="0.00" timeLoss="3.57" rerouteNo="0" devices="tripinfo_Costa_700_30_x7" vType="passenger1" speedFactor="0.92" vaporized="traci"/>
    <tripinfo id="Costa_700_35_x7" depart="92.00" departLane="78[0]_0" departPos="0.00" departSpeed="0.00" departDelay="1.00" arrival="100.00" arrivalLane="78[0]_0" arrivalPos="52.30" arrivalSpeed="14.45" duration="8.00" routeLength="52.30" waitingTime="0.00" waitingCount="0" stopTime="0.00" timeLoss="3.47" rerouteNo="0" devices="tripinfo_Costa_700_35_x7" vType="passenger2b" speedFactor="1.07" vaporized="traci"/>
    <tripinfo id="Costa_70_26_x7" depart="67.00" departLane="78[0]_0" departPos="0.00" departSpeed="0.00" departDelay="0.00" arrival="100.00" arrivalLane="78[0]_0" arrivalPos="358.06" arrivalSpeed="11.94" duration="33.00" routeLength="358.06" waitingTime="1.00" waitingCount="1" stopTime="0.00" timeLoss="6.15" rerouteNo="0" devices="tripinfo_Costa_70_26_x7" vType="passenger1" speedFactor="1.00" vaporized="traci"/>
    <tripinfo id="Costa_70_27_x7" depart="70.00" departLane="78[0]_0" departPos="0.00" departSpeed="0.00" departDelay="0.00" arrival="100.00" arrivalLane="78[0]_0" arrivalPos="312.78" arrivalSpeed="12.80" duration="30.00" routeLength="312.78" waitingTime="0.00" waitingCount="0" stopTime="0.00" timeLoss="4.84" rerouteNo="0" devices="tripinfo_Costa_70_27_x7" vType="passenger2a" speedFactor="0.93" vaporized="traci"/>
    <tripinfo id="Costa_70_34_x7" depart="89.00" departLane="78[0]_0" departPos="0.00" departSpeed="0.00" departDelay="1.00" arrival="100.00" arrivalLane="78[0]_0" arrivalPos="90.50" arrivalSpeed="14.36" duration="11.00" routeLength="90.50" waitingTime="0.00" waitingCount="0" stopTime="0.00" timeLoss="4.01" rerouteNo="0" devices="tripinfo_Costa_70_34_x7" vType="passenger4" speedFactor="1.09" vaporized="traci"/>
    <tripinfo id="Costa_70_37_x7" depart="96.00" departLane="78[0]_0" departPos="0.00" departSpeed="0.00" departDelay="0.00" arrival="100.00" arrivalLane="78[0]_0" arrivalPos="9.15" arrivalSpeed="4.68" duration="4.00" routeLength="9.15" waitingTime="0.00" waitingCount="0" stopTime="0.00" timeLoss="2.34" rerouteNo="0" devices="tripinfo_Costa_70_37_x7" vType="passenger5" speedFactor="1.00" vaporized="traci"/>
    <tripinfo id="Pepoli_10_10_x7" depart="17.00" departLane="210_0" departPos="0.00" departSpeed="0.00" departDelay="0.00" arrival="100.00" arrivalLane="204a[0]_0" arrivalPos="44.38" arrivalSpeed="8.84" duration="83.00" routeLength="836.76" waitingTime="0.00" waitingCount="0" stopTime="0.00" timeLoss="7.15" rerouteNo="0" devices="tripinfo_Pepoli_10_10_x7" vType="passenger2b" speedFactor="0.80" vaporized="traci"/>
    <tripinfo id="Pepoli_10_11_x7" depart="19.00" departLane="210_0" departPos="0.00" departSpeed="0.00" departDelay="1.00" arrival="100.00" arrivalLane="204a[0]_0" arrivalPos="100.86" arrivalSpeed="12.60" duration="81.00" routeLength="893.24" waitingTime="0.00" waitingCount="0" stopTime="0.00" timeLoss="10.22" rerouteNo="0" devices="tripinfo_Pepoli_10_11_x7" vType="passenger1" speedFactor="0.92" vaporized="traci"/>
    <tripinfo id="Pepoli_10_18_x7" depart="30.00" departLane="210_0" departPos="0.00" departSpeed="0.00" departDelay="0.00" arrival="100.00" arrivalLane="204a[0]_1" arrivalPos="76.90" arrivalSpeed="12.51" duration="70.00" routeLength="869.28" waitingTime="0.00" waitingCount="0" stopTime="0.00" timeLoss="9.54" rerouteNo="0" devices="tripinfo_Pepoli_10_18_x7" vType="passenger1" speedFactor="1.05" vaporized="traci"/>
    <tripinfo id="Pepoli_10_19_x7" depart="32.00" departLane="210_1" departPos="0.00" departSpeed="0.00" departDelay="0.00" arrival="100.00" arrivalLane="204a[0]_0" arrivalPos="59.26" arrivalSpeed="13.59" duration="68.00" routeLength="851.64" waitingTime="0.00" waitingCount="0" stopTime="0.00" timeLoss="8.18" rerouteNo="0" devices="tripinfo_Pepoli_10_19_x7" vType="passenger4" speedFactor="1.04" vaporized="traci"/>
    <tripinfo id="Pepoli_10_22_x7" depart="37.00" departLane="210_1" departPos="0.00" departSpeed="0.00" departDelay="0.00" arrival="100.00" arrivalLane="201_0" arrivalPos="53.14" arrivalSpeed="12.02" duration="63.00" routeLength="579.88" waitingTime="6.00" waitingCount="1" stopTime="0.00" timeLoss="16.75" rerouteNo="0" devices="tripinfo_Pepoli_10_22_x7" vType="passenger2b" speedFactor="0.92" vaporized="traci"/>
    <tripinfo id="Pepoli_10_27_x7" depart="46.00" departLane="210_1" departPos="0.00" departSpeed="0.00" departDelay="0.00" arrival="100.00" arrivalLane="201_0" arrivalPos="67.55" arrivalSpeed="14.12" duration="54.00" routeLength="594.29" waitingTime="1.00" waitingCount="1" stopTime="0.00" timeLoss="10.98" rerouteNo="0" devices="tripinfo_Pepoli_10_27_x7" vType="passenger2a" speedFactor="1.02" vaporized="traci"/>
    <tripinfo id="Pepoli_10_34_x7" depart="58.00" departLane="210_0" departPos="0.00" departSpeed="0.00" departDelay="0.00" arrival="100.00" arrivalLane="43[1]_1" arrivalPos="53.04" arrivalSpeed="12.34" duration="42.00" routeLength="467.07" waitingTime="0.00" waitingCount="0" stopTime="0.00" timeLoss="5.05" rerouteNo="0" devices="tripinfo_Pepoli_10_34_x7" vType="passenger2a" speedFactor="0.94" vaporized="traci"/>
    <tripinfo id="Pepoli_10_38_x7" depart="65.00" departLane="210_0" departPos="0.00" departSpeed="0.00" departDelay="0.00" arrival="100.00" arrivalLane=":33_0_0" arrivalPos="9.23" arrivalSpeed="12.38" duration="35.00" routeLength="373.56" waitingTime="0.00" waitingCount="0" stopTime="0.00" timeLoss="4.81" rerouteNo="0" devices="tripinfo_Pepoli_10_38_x7" vType="passenger5" speedFactor="0.92" vaporized="traci"/>
    <tripinfo id="Pepoli_10_39_x7" depart="66.00" departLane="210_1" departPos="0.00" departSpeed="0.00" departDelay="0.00" arrival="100.00" arrivalLane="43[0]_0" arrivalPos="20.11" arrivalSpeed="12.96" duration="34.00" routeLength="394.67" waitingTime="0.00" waitingCount="0" stopTime="0.00" timeLoss="3.99" rerouteNo="0" devices="tripinfo_Pepoli_10_39_x7" vType="passenger1" speedFactor="0.98" vaporized="traci"/>
    <tripinfo id="Pepoli_10_40_x7" depart="68.00" departLane="210_0" departPos="0.00" departSpeed="0.00" departDelay="0.00" arrival="100.00" arrivalLane="210_0" arrivalPos="343.54" arrivalSpeed="12.04" duration="32.00" routeLength="343.54" waitingTime="0.00" waitingCount="0" stopTime="0.00" timeLoss="3.78" rerouteNo="0" devices="tripinfo_Pepoli_10_40_x7" vType="passenger1" speedFactor="0.91" vaporized="traci"/>
    <tripinfo id="Pepoli_10_49_x7" depart="84.00" departLane="210_0" departPos="0.00" departSpeed="0.00" departDelay="0.00" arrival="100.00" arrivalLane="210_0" arrivalPos="142.93" arrivalSpeed="10.89" duration="16.00" routeLength="142.93" waitingTime="0.00" waitingCount="0" stopTime="0.00" timeLoss="3.14" rerouteNo="0" devices="tripinfo_Pepoli_10_49_x7" vType="passenger3" speedFactor="0.87" vaporized="traci"/>
    <tripinfo id="Pepoli_10_4_x7" depart="6.00" departLane="210_0" departPos="0.00" departSpeed="0.00" departDelay="0.00" arrival="100.00" arrivalLane="204a[0]_0" arrivalPos="176.46" arrivalSpeed="11.53" duration="94.00" routeLength="968.84" waitingTime="17.00" waitingCount="2" stopTime="0.00" timeLoss="34.28" rerouteNo="0" devices="tripinfo_Pepoli_10_4_x7" vType="passenger1" speedFactor="1.19" vaporized="traci"/>
    <tripinfo id="Pepoli_10_50_x7" depart="85.00" departLane="210_1" departPos="0.00" departSpeed="0.00" departDelay="0.00" arrival="100.00" arrivalLane="210_1" arrivalPos="162.39" arrivalSpeed="14.45" duration="15.00" routeLength="162.39" waitingTime="0.00" waitingCount="0" stopTime="0.00" timeLoss="3.42" rerouteNo="0" devices="tripinfo_Pepoli_10_50_x7" vType="passenger1" speedFactor="1.10" vaporized="traci"/>
    <tripinfo id="Pepoli_10_55_x7" depart="94.00" departLane="210_0" departPos="0.00" departSpeed="0.00" departDelay="0.00" arrival="100.00" arrivalLane="210_0" arrivalPos="23.16" arrivalSpeed="8.10" duration="6.00" routeLength="23.16" waitingTime="0.00" waitingCount="0" stopTime="0.00" timeLoss="3.43" rerouteNo="0" devices="tripinfo_Pepoli_10_55_x7" vType="passenger4" speedFactor="1.06" vaporized="traci"/>
    <tripinfo id="Pepoli_10_56_x7" depart="96.00" departLane="210_1" departPos="0.00" departSpeed="0.00" departDelay="0.00" arrival="100.00" arrivalLane="210_1" arrivalPos="10.50" arrivalSpeed="5.73" duration="4.00" routeLength="10.50" waitingTime="0.00" waitingCount="0" stopTime="0.00" timeLoss="2.24" rerouteNo="0" devices="tripinfo_Pepoli_10_56_x7" vType="passenger3" speedFactor="0.99" vaporized="traci"/>
    <tripinfo id="Pepoli_10_57_x7" depart="97.00" departLane="210_0" departPos="0.00" departSpeed="0.00" departDelay="0.00" arrival="100.00" arrivalLane="210_0" arrivalPos="6.05" arrivalSpeed="3.75" duration="3.00" routeLength="6.05" waitingTime="0.00" waitingCount="0" stopTime="0.00" timeLoss="1.51" rerouteNo="0" devices="tripinfo_Pepoli_10_57_x7" vType="passenger3" speedFactor="0.88" vaporized="traci"/>
    <tripinfo id="Pepoli_11_15_x7" depart="25.00" departLane="210_1" departPos="0.00" departSpeed="0.00" departDelay="0.00" arrival="100.00" arrivalLane="204a[0]_2" arrivalPos="54.93" arrivalSpeed="12.64" duration="75.00" routeLength="847.31" waitingTime="0.00" waitingCount="0" stopTime="0.00" timeLoss="9.22" rerouteNo="0" devices="tripinfo_Pepoli_11_15_x7" vType="passenger1" speedFactor="0.94" vaporized="traci"/>
    <tripinfo id="Pepoli_11_17_x7" depart="29.00" departLane="210_1" departPos="0.00" departSpeed="0.00" departDelay="0.00" arrival="100.00" arrivalLane="204a[0]_2" arrivalPos="170.98" arrivalSpeed="14.82" duration="71.00" routeLength="963.36" waitingTime="0.00" waitingCount="0" stopTime="0.00" timeLoss="6.31" rerouteNo="0" devices="tripinfo_Pepoli_11_17_x7" vType="passenger2a" speedFactor="1.09" vaporized="traci"/>
    <tripinfo id="Pepoli_11_24_x7" depart="41.00" departLane="210_1" departPos="0.00" departSpeed="0.00" departDelay="0.00" arrival="100.00" arrivalLane="201_0" arrivalPos="89.16" arrivalSpeed="14.41" duration="59.00" routeLength="615.90" waitingTime="4.00" waitingCount="1" stopTime="0.00" timeLoss="15.61" rerouteNo="0" devices="tripinfo_Pepoli_11_24_x7" vType="passenger4" speedFactor="1.05" vaporized="traci"/>
    <tripinfo id="Pepoli_11_29_x7" depart="49.00" departLane="210_1" departPos="0.00" departSpeed="0.00" departDelay="0.00" arrival="100.00" arrivalLane="201_1" arrivalPos="126.20" arrivalSpeed="14.07" duration="51.00" routeLength="652.94" waitingTime="0.00" waitingCount="0" stopTime="0.00" timeLoss="6.75" rerouteNo="0" devices="tripinfo_Pepoli_11_29_x7" vType="passenger2b" speedFactor="1.09" vaporized="traci"/>
    <tripinfo id="Pepoli_11_30_x7" depart="51.00" departLane="210_1" departPos="0.00" departSpeed="0.00" departDelay="0.00" arrival="100.00" arrivalLane="201_1" arrivalPos="35.70" arrivalSpeed="12.37" duration="49.00" routeLength="562.44" waitingTime="0.00" waitingCount="0" stopTime="0.00" timeLoss="5.83" rerouteNo="0" devices="tripinfo_Pepoli_11_30_x7" vType="passenger2b" speedFactor="0.96" vaporized="traci"/>
    <tripinfo id="Pepoli_11_32_x7" depart="54.00" departLane="210_1" departPos="0.00" departSpeed="0.00" departDelay="0.00" arrival="100.00" arrivalLane="43[1]_0" arrivalPos="54.80" arrivalSpeed="10.65" duration="46.00" routeLength="468.83" waitingTime="0.00" waitingCount="0" stopTime="0.00" timeLoss="5.29" rerouteNo="0" devices="tripinfo_Pepoli_11_32_x7" vType="passenger2b" speedFactor="0.85" vaporized="traci"/>
    <tripinfo id="Pepoli_11_36_x7" depart="61.00" departLane="210_1" departPos="0.00" departSpeed="0.00" departDelay="0.00" arrival="100.00" arrivalLane="43[1]_1" arrivalPos="79.48" arrivalSpeed="0.07" duration="39.00" routeLength="493.51" waitingTime="1.00" waitingCount="1" stopTime="0.00" timeLoss="7.80" rerouteNo="0" devices="tripinfo_Pepoli_11_36_x7" vType="passenger1" speedFactor="1.18" vaporized="traci"/>
    <tripinfo id="Pepoli_11_3_x7" depart="5.00" departLane="210_1" departPos="0.00" departSpeed="0.00" departDelay="0.00" arrival="100.00" arrivalLane="204a[0]_1" arrivalPos="129.74" arrivalSpeed="12.56" duration="95.00" routeLength="922.12" waitingTime="11.00" waitingCount="1" stopTime="0.00" timeLoss="27.00" rerouteNo="0" devices="tripinfo_Pepoli_11_3_x7" vType="passenger2b" speedFactor="0.99" vaporized="traci"/>
    <tripinfo id="Pepoli_11_41_x7" depart="70.00" departLane="210_1" departPos="0.00" departSpeed="0.00" departDelay="0.00" arrival="100.00" arrivalLane="43[0]_1" arrivalPos="4.09" arrivalSpeed="15.14" duration="30.00" routeLength="378.65" waitingTime="0.00" waitingCount="0" stopTime="0.00" timeLoss="4.44" rerouteNo="0" devices="tripinfo_Pepoli_11_41_x7" vType="passenger3" speedFactor="1.11" vaporized="traci"/>
    <tripinfo id="Pepoli_11_53_x7" depart="90.00" departLane="210_1" departPos="0.00" departSpeed="0.00" departDelay="0.00" arrival="100.00" arrivalLane="210_0" arrivalPos="72.94" arrivalSpeed="12.25" duration="10.00" routeLength="72.94" waitingTime="0.00" waitingCount="0" stopTime="0.00" timeLoss="3.13" rerouteNo="0" devices="tripinfo_Pepoli_11_53_x7" vType="passenger3" speedFactor="0.89" vaporized="traci"/>
    <tripinfo id="Pepoli_11_58_x7" depart="99.00" departLane="210_1" departPos="0.00" departSpeed="0.00" departDelay="0.00" arrival="100.00" arrivalLane="210_1" arrivalPos="0.00" arrivalSpeed="0.00" duration="1.00" routeLength="0.00" waitingTime="0.00" waitingCount="0" stopTime="0.00" timeLoss="0.00" rerouteNo="0" devices="tripinfo_Pepoli_11_58_x7" vType="passenger1" speedFactor="1.19" vaporized="traci"/>
    <tripinfo id="Pepoli_11_5_x7" depart="8.00" departLane="210_1" departPos="0.00" departSpeed="0.00" departDelay="0.00" arrival="100.00" arrivalLane="204a[0]_1" arrivalPos="158.50" arrivalSpeed="13.24" duration="92.00" routeLength="950.88" waitingTime="9.00" waitingCount="1" stopTime="0.00" timeLoss="24.06" rerouteNo="0" devices="tripinfo_Pepoli_11_5_x7" vType="passenger1" speedFactor="1.02" vaporized="traci"/>
    <tripinfo id="Pepoli_11_6_x7" depart="11.00" departLane="210_1" departPos="0.00" departSpeed="0.00" departDelay="1.00" arrival="100.00" arrivalLane="204a[0]_1" arrivalPos="184.59" arrivalSpeed="7.03" duration="89.00" routeLength="976.97" waitingTime="7.00" waitingCount="1" stopTime="0.00" timeLoss="22.52" rerouteNo="0" devices="tripinfo_Pepoli_11_6_x7" vType="passenger1" speedFactor="1.07" vaporized="traci"/>
    <tripinfo id="Pepoli_11_8_x7" depart="14.00" departLane="210_1" departPos="0.00" departSpeed="0.00" departDelay="1.00" arrival="100.00" arrivalLane="204a[0]_2" arrivalPos="147.84" arrivalSpeed="14.01" duration="86.00" routeLength="940.22" waitingTime="6.00" waitingCount="1" stopTime="0.00" timeLoss="26.36" rerouteNo="0" devices="tripinfo_Pepoli_11_8_x7" vType="passenger2b" speedFactor="1.15" vaporized="traci"/>
    <tripinfo id="Pepoli_11_9_x7" depart="17.00" departLane="210_1" departPos="0.00" departSpeed="0.00" departDelay="2.00" arrival="100.00" arrivalLane="204a[0]_1" arrivalPos="97.50" arrivalSpeed="12.48" duration="83.00" routeLength="889.88" waitingTime="0.00" waitingCount="0" stopTime="0.00" timeLoss="12.29" rerouteNo="0" devices="tripinfo_Pepoli_11_9_x7" vType="passenger5" speedFactor="0.92" vaporized="traci"/>
    <tripinfo id="Pepoli_12_42_x7" depart="72.00" departLane="210_2" departPos="0.00" departSpeed="0.00" departDelay="0.00" arrival="100.00" arrivalLane="210_2" arrivalPos="317.07" arrivalSpeed="13.86" duration="28.00" routeLength="317.07" waitingTime="0.00" waitingCount="0" stopTime="0.00" timeLoss="4.17" rerouteNo="0" devices="tripinfo_Pepoli_12_42_x7" vType="ignoring1" speedFactor="1.00" vaporized="traci"/>
    <tripinfo id="Pepoli_3_0_x7" depart="0.00" departLane="210_2" departPos="0.00" departSpeed="0.00" departDelay="0.00" arrival="100.00" arrivalLane="62_0" arrivalPos="186.64" arrivalSpeed="13.52" duration="100.00" routeLength="1111.59" waitingTime="5.00" waitingCount="1" stopTime="0.00" timeLoss="18.18" rerouteNo="0" devices="tripinfo_Pepoli_3_0_x7" vType="ignoring1" speedFactor="1.00" vaporized="traci"/>
    <tripinfo id="Pepoli_3_14_x7" depart="24.00" departLane="210_2" departPos="0.00" departSpeed="0.00" departDelay="0.00" arrival="100.00" arrivalLane="65_0" arrivalPos="91.89" arrivalSpeed="12.93" duration="76.00" routeLength="656.04" waitingTime="16.00" waitingCount="1" stopTime="0.00" timeLoss="27.29" rerouteNo="0" devices="tripinfo_Pepoli_3_14_x7" vType="ignoring1" speedFactor="1.00" vaporized="traci"/>
    <tripinfo id="Pepoli_3_2_x7" depart="3.00" departLane="210_2" departPos="0.00" departSpeed="0.00" departDelay="0.00" arrival="100.00" arrivalLane="62_0" arrivalPos="162.28" arrivalSpeed="12.84" duration="97.00" routeLength="1087.23" waitingTime="2.00" waitingCount="1" stopTime="0.00" timeLoss="16.82" rerouteNo="0" devices="tripinfo_Pepoli_3_2_x7" vType="ignoring1" speedFactor="1.00" vaporized="traci"/>
    <tripinfo id="Pepoli_3_43_x7" depart="75.00" departLane="210_2" departPos="0.00" departSpeed="0.00" departDelay="2.00" arrival="100.00" arrivalLane="210_2" arrivalPos="279.44" arrivalSpeed="13.58" duration="25.00" routeLength="279.44" waitingTime="0.00" waitingCount="0" stopTime="0.00" timeLoss="3.88" rerouteNo="0" devices="tripinfo_Pepoli_3_43_x7" vType="ignoring1" speedFactor="1.00" vaporized="traci"/>
    <tripinfo id="Pepoli_8_16_x7" depart="27.00" departLane="210_0" departPos="0.00" departSpeed="0.00" departDelay="0.00" arrival="100.00" arrivalLane="134b_0" arrivalPos="49.59" arrivalSpeed="9.88" duration="73.00" routeLength="586.13" waitingTime="8.00" waitingCount="1" stopTime="0.00" timeLoss="18.70" rerouteNo="0" devices="tripinfo_Pepoli_8_16_x7" vType="passenger2b" speedFactor="0.81" vaporized="traci"/>
    <tripinfo id="Pepoli_8_21_x7" depart="36.00" departLane="210_0" departPos="0.00" departSpeed="0.00" departDelay="0.00" arrival="100.00" arrivalLane=":26_3_0" arrivalPos="16.50" arrivalSpeed="10.10" duration="64.00" routeLength="534.89" waitingTime="6.00" waitingCount="1" stopTime="0.00" timeLoss="16.99" rerouteNo="0" devices="tripinfo_Pepoli_8_21_x7" vType="passenger1" speedFactor="0.86" vaporized="traci"/>