<?xml version="1.0" encoding="UTF-8"?>

<!-- generated on 2024-07-19 11:15:56 by Eclipse SUMO sumo Version 1.20.0
<configuration xmlns:xsi="http://www.w3.org/2001/XMLSchema-instance" xsi:noNamespaceSchemaLocation="http://sumo.dlr.de/xsd/sumoConfiguration.xsd">

    <input>
        <net-file value="/home/jules/Bureau/sumo-experiments/src/sumo_experiments/preset_networks/bologna/acosta/acosta_buslanes.net.xml"/>
        <route-files value="/home/jules/Bureau/sumo-experiments/src/sumo_experiments/preset_networks/bologna/acosta/acosta_NEW.rou.xml,/home/jules/Bureau/sumo-experiments/src/sumo_experiments/preset_networks/bologna/acosta/acosta_busses.rou.xml"/>
        <additional-files value="/home/jules/Bureau/sumo-experiments/src/sumo_experiments/preset_networks/bologna/acosta/acosta_tls.add.xml,/home/jules/Bureau/sumo-experiments/src/sumo_experiments/preset_networks/bologna/acosta/acosta_vtypes.add.xml,/home/jules/Bureau/sumo-experiments/src/sumo_experiments/preset_networks/bologna/acosta/acosta_detectors.add.xml,/home/jules/Bureau/sumo-experiments/src/sumo_experiments/preset_networks/bologna/acosta/acosta_bus_stops.add.xml"/>
    </input>

    <output>
        <tripinfo-output value="/home/jules/Bureau/sumo-experiments/src/sumo_experiments/preset_networks/bologna/acosta/tripinfos.xml"/>
    </output>

    <processing>
        <time-to-teleport value="-1"/>
    </processing>

    <report>
        <log value="/home/jules/Bureau/sumo-experiments/src/sumo_experiments/preset_networks/bologna/acosta/sumo_log.txt"/>
        <no-step-log value="true"/>
    </report>

    <traci_server>
        <remote-port value="44871"/>
    </traci_server>

    <gui_only>
        <gui-settings-file value="/home/jules/Bureau/sumo-experiments/src/sumo_experiments/preset_networks/bologna/acosta/settings.gui.xml"/>
    </gui_only>

</configuration>
-->

<tripinfos xmlns:xsi="http://www.w3.org/2001/XMLSchema-instance" xsi:noNamespaceSchemaLocation="http://sumo.dlr.de/xsd/tripinfo_file.xsd">
    <tripinfo id="Pepoli_8_16_x9" depart="27.00" departLane="210_0" departPos="0.00" departSpeed="0.00" departDelay="0.00" arrival="90.00" arrivalLane="134b_0" arrivalPos="156.17" arrivalSpeed="11.82" duration="63.00" routeLength="692.71" waitingTime="0.00" waitingCount="0" stopTime="0.00" timeLoss="7.75" rerouteNo="0" devices="tripinfo_Pepoli_8_16_x9" vType="passenger2a" speedFactor="0.92" vaporized=""/>
    <tripinfo id="Costa_1_2_x9" depart="9.00" departLane="78[0]_0" departPos="0.00" departSpeed="0.00" departDelay="4.00" arrival="106.00" arrivalLane="86_0" arrivalPos="321.19" arrivalSpeed="13.60" duration="97.00" routeLength="1188.91" waitingTime="0.00" waitingCount="0" stopTime="0.00" timeLoss="10.78" rerouteNo="0" devices="tripinfo_Costa_1_2_x9" vType="passenger2b" speedFactor="1.02" vaporized=""/>
    <tripinfo id="Audinot_7_0_x9" depart="0.00" departLane="131_0" departPos="0.00" departSpeed="0.00" departDelay="0.00" arrival="109.00" arrivalLane="209_0" arrivalPos="395.59" arrivalSpeed="12.35" duration="109.00" routeLength="873.23" waitingTime="29.00" waitingCount="1" stopTime="0.00" timeLoss="42.63" rerouteNo="0" devices="tripinfo_Audinot_7_0_x9" vType="passenger4" speedFactor="0.98" vaporized=""/>
    <tripinfo id="Costa_12_0_x9" depart="0.00" departLane="78[0]_0" departPos="0.00" departSpeed="0.00" departDelay="0.00" arrival="111.00" arrivalLane="136_0" arrivalPos="186.20" arrivalSpeed="14.64" duration="111.00" routeLength="1416.45" waitingTime="0.00" waitingCount="0" stopTime="0.00" timeLoss="14.57" rerouteNo="0" devices="tripinfo_Costa_12_0_x9" vType="passenger1" speedFactor="1.08" vaporized=""/>
    <tripinfo id="Vittorio_Veneto_1_4_x9" depart="18.00" departLane="224[0]_0" departPos="0.00" departSpeed="0.00" departDelay="0.00" arrival="112.00" arrivalLane="86_0" arrivalPos="321.19" arrivalSpeed="12.75" duration="94.00" routeLength="1143.28" waitingTime="0.00" waitingCount="0" stopTime="0.00" timeLoss="9.70" rerouteNo="0" devices="tripinfo_Vittorio_Veneto_1_4_x9" vType="passenger1" speedFactor="1.00" vaporized=""/>
    <tripinfo id="Costa_12_1_x9" depart="7.00" departLane="78[0]_0" departPos="0.00" departSpeed="0.00" departDelay="5.00" arrival="119.00" arrivalLane="136_0" arrivalPos="186.20" arrivalSpeed="14.04" duration="112.00" routeLength="1416.45" waitingTime="0.00" waitingCount="0" stopTime="0.00" timeLoss="15.46" rerouteNo="0" devices="tripinfo_Costa_12_1_x9" vType="passenger2b" speedFactor="1.09" vaporized=""/>
    <tripinfo id="XXI_Aprile_2_12_x9" depart="42.00" departLane="13_0" departPos="0.00" departSpeed="0.00" departDelay="0.00" arrival="121.00" arrivalLane="77[1][1]_0" arrivalPos="463.98" arrivalSpeed="13.13" duration="79.00" routeLength="976.81" waitingTime="0.00" waitingCount="0" stopTime="0.00" timeLoss="9.42" rerouteNo="0" devices="tripinfo_XXI_Aprile_2_12_x9" vType="passenger2a" speedFactor="1.03" vaporized=""/>
    <tripinfo id="Pepoli_10_10_x9" depart="17.00" departLane="210_0" departPos="0.00" departSpeed="0.00" departDelay="0.00" arrival="126.00" arrivalLane="204[1][1]_1" arrivalPos="435.51" arrivalSpeed="15.50" duration="109.00" routeLength="1470.66" waitingTime="0.00" waitingCount="0" stopTime="0.00" timeLoss="17.58" rerouteNo="0" devices="tripinfo_Pepoli_10_10_x9" vType="passenger2a" speedFactor="1.17" vaporized=""/>
    <tripinfo id="Costa_12_3_x9" depart="11.00" departLane="78[0]_0" departPos="0.00" departSpeed="0.00" departDelay="4.00" arrival="130.00" arrivalLane="136_0" arrivalPos="186.20" arrivalSpeed="13.58" duration="119.00" routeLength="1416.45" waitingTime="0.00" waitingCount="0" stopTime="0.00" timeLoss="15.38" rerouteNo="0" devices="tripinfo_Costa_12_3_x9" vType="passenger1" speedFactor="1.01" vaporized=""/>
    <tripinfo id="Pepoli_11_5_x9" depart="8.00" departLane="210_1" departPos="0.00" departSpeed="0.00" departDelay="0.00" arrival="134.00" arrivalLane="114_0" arrivalPos="692.70" arrivalSpeed="14.57" duration="126.00" routeLength="1738.37" waitingTime="0.00" waitingCount="0" stopTime="0.00" timeLoss="14.45" rerouteNo="0" devices="tripinfo_Pepoli_11_5_x9" vType="passenger1" speedFactor="1.13" vaporized=""/>
    <tripinfo id="Pepoli_10_4_x9" depart="6.00" departLane="210_0" departPos="0.00" departSpeed="0.00" departDelay="0.00" arrival="135.00" arrivalLane="204[1][1]_0" arrivalPos="435.51" arrivalSpeed="11.20" duration="129.00" routeLength="1470.66" waitingTime="0.00" waitingCount="0" stopTime="0.00" timeLoss="9.17" rerouteNo="0" devices="tripinfo_Pepoli_10_4_x9" vType="passenger2b" speedFactor="0.89" vaporized=""/>
    <tripinfo id="Togliatti_12_15_x9" depart="21.00" departLane="85_2" departPos="0.00" departSpeed="0.00" departDelay="0.00" arrival="140.00" arrivalLane="136_0" arrivalPos="186.20" arrivalSpeed="12.90" duration="119.00" routeLength="909.95" waitingTime="32.00" waitingCount="1" stopTime="0.00" timeLoss="47.03" rerouteNo="0" devices="tripinfo_Togliatti_12_15_x9" vType="passenger3" speedFactor="0.94" vaporized=""/>
    <tripinfo id="Togliatti_12_24_x9" depart="34.00" departLane="85_2" departPos="0.00" departSpeed="0.00" departDelay="0.00" arrival="142.00" arrivalLane="136_0" arrivalPos="186.20" arrivalSpeed="13.44" duration="108.00" routeLength="909.95" waitingTime="19.00" waitingCount="1" stopTime="0.00" timeLoss="38.68" rerouteNo="0" devices="tripinfo_Togliatti_12_24_x9" vType="passenger2a" speedFactor="0.97" vaporized=""/>
    <tripinfo id="Costa_3_21_x9" depart="57.00" departLane="78[0]_0" departPos="0.00" departSpeed="0.00" departDelay="3.00" arrival="142.00" arrivalLane="14_0" arrivalPos="77.26" arrivalSpeed="12.89" duration="85.00" routeLength="850.23" waitingTime="6.00" waitingCount="1" stopTime="0.00" timeLoss="22.03" rerouteNo="0" devices="tripinfo_Costa_3_21_x9" vType="passenger3" speedFactor="1.00" vaporized=""/>
    <tripinfo id="Togliatti_12_48_x9" depart="68.00" departLane="85_2" departPos="0.00" departSpeed="0.00" departDelay="0.00" arrival="144.00" arrivalLane="136_0" arrivalPos="186.20" arrivalSpeed="15.70" duration="76.00" routeLength="909.95" waitingTime="0.00" waitingCount="0" stopTime="0.00" timeLoss="16.86" rerouteNo="0" devices="tripinfo_Togliatti_12_48_x9" vType="passenger2a" speedFactor="1.14" vaporized=""/>
    <tripinfo id="Pepoli_11_8_x9" depart="17.00" departLane="210_1" departPos="0.00" departSpeed="0.00" departDelay="4.00" arrival="145.00" arrivalLane="114_0" arrivalPos="692.70" arrivalSpeed="13.35" duration="128.00" routeLength="1738.37" waitingTime="0.00" waitingCount="0" stopTime="0.00" timeLoss="9.65" rerouteNo="0" devices="tripinfo_Pepoli_11_8_x9" vType="passenger2a" speedFactor="1.07" vaporized=""/>
    <tripinfo id="Pepoli_10_11_x9" depart="19.00" departLane="210_0" departPos="0.00" departSpeed="0.00" departDelay="1.00" arrival="147.00" arrivalLane="204[1][1]_0" arrivalPos="435.51" arrivalSpeed="11.47" duration="128.00" routeLength="1470.66" waitingTime="0.00" waitingCount="0" stopTime="0.00" timeLoss="9.91" rerouteNo="0" devices="tripinfo_Pepoli_10_11_x9" vType="passenger4" speedFactor="0.90" vaporized=""/>
    <tripinfo id="Togliatti_2_8_x9" depart="11.00" departLane="85_0" departPos="0.00" departSpeed="0.00" departDelay="0.00" arrival="150.00" arrivalLane="77[1][1]_0" arrivalPos="463.98" arrivalSpeed="14.41" duration="139.00" routeLength="1145.48" waitingTime="44.00" waitingCount="1" stopTime="0.00" timeLoss="62.07" rerouteNo="0" devices="tripinfo_Togliatti_2_8_x9" vType="passenger2a" speedFactor="1.10" vaporized=""/>
    <tripinfo id="Pepoli_11_6_x9" depart="11.00" departLane="210_1" departPos="0.00" departSpeed="0.00" departDelay="1.00" arrival="151.00" arrivalLane="114_0" arrivalPos="692.70" arrivalSpeed="13.16" duration="140.00" routeLength="1738.37" waitingTime="0.00" waitingCount="0" stopTime="0.00" timeLoss="10.37" rerouteNo="0" devices="tripinfo_Pepoli_11_6_x9" vType="passenger1" speedFactor="0.97" vaporized=""/>
    <tripinfo id="Vittorio_Veneto_1_13_x9" depart="59.00" departLane="224[0]_0" departPos="0.00" departSpeed="0.00" departDelay="0.00" arrival="153.00" arrivalLane="86_1" arrivalPos="321.19" arrivalSpeed="13.93" duration="94.00" routeLength="1143.28" waitingTime="0.00" waitingCount="0" stopTime="0.00" timeLoss="12.72" rerouteNo="0" devices="tripinfo_Vittorio_Veneto_1_13_x9" vType="passenger1" speedFactor="1.03" vaporized=""/>
    <tripinfo id="Vittorio_Veneto_1_10_x9" depart="45.00" departLane="224[0]_0" departPos="0.00" departSpeed="0.00" departDelay="0.00" arrival="155.00" arrivalLane="86_0" arrivalPos="321.19" arrivalSpeed="11.34" duration="110.00" routeLength="1143.28" waitingTime="0.00" waitingCount="0" stopTime="0.00" timeLoss="9.33" rerouteNo="0" devices="tripinfo_Vittorio_Veneto_1_10_x9" vType="passenger3" speedFactor="0.84" vaporized=""/>
    <tripinfo id="Vittorio_Veneto_1_12_x9" depart="55.00" departLane="224[0]_0" departPos="0.00" departSpeed="0.00" departDelay="0.00" arrival="157.00" arrivalLane="86_0" arrivalPos="321.19" arrivalSpeed="11.99" duration="102.00" routeLength="1143.28" waitingTime="0.00" waitingCount="0" stopTime="0.00" timeLoss="9.72" rerouteNo="0" devices="tripinfo_Vittorio_Veneto_1_12_x9" vType="passenger3" speedFactor="0.91" vaporized=""/>
    <tripinfo id="Togliatti_12_59_x9" depart="84.00" departLane="85_2" departPos="0.00" departSpeed="0.00" departDelay="0.00" arrival="158.00" arrivalLane="136_0" arrivalPos="186.20" arrivalSpeed="14.39" duration="74.00" routeLength="909.95" waitingTime="0.00" waitingCount="0" stopTime="0.00" timeLoss="10.93" rerouteNo="0" devices="tripinfo_Togliatti_12_59_x9" vType="passenger1" speedFactor="1.07" vaporized=""/>
    <tripinfo id="Togliatti_3_18_x9" depart="25.00" departLane="85_0" departPos="0.00" departSpeed="0.00" departDelay="0.00" arrival="160.00" arrivalLane="14_0" arrivalPos="77.26" arrivalSpeed="13.38" duration="135.00" routeLength="1110.28" waitingTime="34.00" waitingCount="1" stopTime="0.00" timeLoss="56.07" rerouteNo="0" devices="tripinfo_Togliatti_3_18_x9" vType="passenger1" speedFactor="1.03" vaporized=""/>
    <tripinfo id="Pepoli_11_15_x9" depart="25.00" departLane="210_1" departPos="0.00" departSpeed="0.00" departDelay="0.00" arrival="161.00" arrivalLane="114_1" arrivalPos="692.70" arrivalSpeed="15.46" duration="136.00" routeLength="1735.41" waitingTime="0.00" waitingCount="0" stopTime="0.00" timeLoss="23.67" rerouteNo="0" devices="tripinfo_Pepoli_11_15_x9" vType="passenger1" speedFactor="1.12" vaporized=""/>
    <tripinfo id="Togliatti_3_31_x9" depart="44.00" departLane="85_0" departPos="0.00" departSpeed="0.00" departDelay="0.00" arrival="162.00" arrivalLane="14_0" arrivalPos="77.26" arrivalSpeed="15.11" duration="118.00" routeLength="1107.06" waitingTime="18.00" waitingCount="1" stopTime="0.00" timeLoss="43.39" rerouteNo="0" devices="tripinfo_Togliatti_3_31_x9" vType="passenger4" speedFactor="1.10" vaporized=""/>
    <tripinfo id="Pepoli_11_17_x9" depart="29.00" departLane="210_1" departPos="0.00" departSpeed="0.00" departDelay="0.00" arrival="164.00" arrivalLane="114_0" arrivalPos="692.70" arrivalSpeed="13.94" duration="135.00" routeLength="1735.41" waitingTime="0.00" waitingCount="0" stopTime="0.00" timeLoss="10.32" rerouteNo="0" devices="tripinfo_Pepoli_11_17_x9" vType="passenger1" speedFactor="1.01" vaporized=""/>
    <tripinfo id="Costa_3_33_x9" depart="90.00" departLane="78[0]_0" departPos="0.00" departSpeed="0.00" departDelay="4.00" arrival="165.00" arrivalLane="14_0" arrivalPos="77.26" arrivalSpeed="15.06" duration="75.00" routeLength="850.23" waitingTime="3.00" waitingCount="1" stopTime="0.00" timeLoss="18.68" rerouteNo="0" devices="tripinfo_Costa_3_33_x9" vType="passenger1" speedFactor="1.12" vaporized=""/>
    <tripinfo id="Togliatti_2_32_x9" depart="47.00" departLane="85_0" departPos="0.00" departSpeed="0.00" departDelay="2.00" arrival="169.00" arrivalLane="77[1][1]_0" arrivalPos="463.98" arrivalSpeed="13.35" duration="122.00" routeLength="1145.48" waitingTime="18.00" waitingCount="1" stopTime="0.00" timeLoss="39.52" rerouteNo="0" devices="tripinfo_Togliatti_2_32_x9" vType="passenger1" speedFactor="1.03" vaporized=""/>
    <tripinfo id="Pepoli_11_3_x9" depart="5.00" departLane="210_1" departPos="0.00" departSpeed="0.00" departDelay="0.00" arrival="171.00" arrivalLane="114_0" arrivalPos="692.70" arrivalSpeed="10.47" duration="166.00" routeLength="1738.37" waitingTime="0.00" waitingCount="0" stopTime="0.00" timeLoss="9.68" rerouteNo="0" devices="tripinfo_Pepoli_11_3_x9" vType="passenger5" speedFactor="0.80" vaporized=""/>
    <tripinfo id="Pepoli_11_9_x9" depart="19.00" departLane="210_1" departPos="0.00" departSpeed="0.00" departDelay="4.00" arrival="174.00" arrivalLane="114_0" arrivalPos="692.70" arrivalSpeed="10.81" duration="155.00" routeLength="1738.37" waitingTime="0.00" waitingCount="0" stopTime="0.00" timeLoss="11.90" rerouteNo="0" devices="tripinfo_Pepoli_11_9_x9" vType="passenger2b" speedFactor="0.88" vaporized=""/>
    <tripinfo id="Pepoli_11_7_x9" depart="14.00" departLane="210_1" departPos="0.00" departSpeed="0.00" departDelay="2.00" arrival="175.00" arrivalLane="114_0" arrivalPos="692.70" arrivalSpeed="10.54" duration="161.00" routeLength="1738.37" waitingTime="0.00" waitingCount="0" stopTime="0.00" timeLoss="10.51" rerouteNo="0" devices="tripinfo_Pepoli_11_7_x9" vType="passenger5" speedFactor="0.83" vaporized=""/>
    <tripinfo id="Pepoli_8_21_x9" depart="37.00" departLane="210_0" departPos="0.00" departSpeed="0.00" departDelay="1.00" arrival="175.00" arrivalLane="134b_0" arrivalPos="156.17" arrivalSpeed="14.64" duration="138.00" routeLength="692.71" waitingTime="66.00" waitingCount="1" stopTime="0.00" timeLoss="90.07" rerouteNo="0" devices="tripinfo_Pepoli_8_21_x9" vType="passenger3" speedFactor="1.06" vaporized=""/>
    <tripinfo id="Togliatti_3_39_x9" depart="55.00" departLane="85_0" departPos="0.00" departSpeed="0.00" departDelay="0.00" arrival="176.00" arrivalLane="14_0" arrivalPos="77.26" arrivalSpeed="12.68" duration="121.00" routeLength="1107.06" waitingTime="16.00" waitingCount="1" stopTime="0.00" timeLoss="35.91" rerouteNo="0" devices="tripinfo_Togliatti_3_39_x9" vType="passenger2a" speedFactor="0.97" vaporized=""/>
    <tripinfo id="Pepoli_8_23_x9" depart="39.00" departLane="210_0" departPos="0.00" departSpeed="0.00" departDelay="0.00" arrival="178.00" arrivalLane="134b_0" arrivalPos="156.17" arrivalSpeed="12.74" duration="139.00" routeLength="692.71" waitingTime="67.00" waitingCount="2" stopTime="0.00" timeLoss="86.67" rerouteNo="0" devices="tripinfo_Pepoli_8_23_x9" vType="passenger2a" speedFactor="0.97" vaporized=""/>
    <tripinfo id="Costa_3_38_x9" depart="103.00" departLane="78[0]_0" departPos="0.00" departSpeed="0.00" departDelay="4.00" arrival="178.00" arrivalLane="14_0" arrivalPos="77.26" arrivalSpeed="15.60" duration="75.00" routeLength="850.23" waitingTime="0.00" waitingCount="0" stopTime="0.00" timeLoss="20.36" rerouteNo="0" devices="tripinfo_Costa_3_38_x9" vType="passenger1" speedFactor="1.16" vaporized=""/>
    <tripinfo id="Pepoli_8_25_x9" depart="43.00" departLane="210_0" departPos="0.00" departSpeed="0.00" departDelay="1.00" arrival="180.00" arrivalLane="134b_0" arrivalPos="156.17" arrivalSpeed="13.09" duration="137.00" routeLength="692.71" waitingTime="64.00" waitingCount="1" stopTime="0.00" timeLoss="86.96" rerouteNo="0" devices="tripinfo_Pepoli_8_25_x9" vType="passenger1" speedFactor="1.02" vaporized=""/>
    <tripinfo id="XXI_Aprile_7_0_x9" depart="0.00" departLane="8_0" departPos="0.00" departSpeed="0.00" departDelay="0.00" arrival="181.00" arrivalLane="209_0" arrivalPos="395.59" arrivalSpeed="13.55" duration="181.00" routeLength="2111.89" waitingTime="0.00" waitingCount="0" stopTime="0.00" timeLoss="26.48" rerouteNo="0" devices="tripinfo_XXI_Aprile_7_0_x9" vType="passenger1" speedFactor="1.01" vaporized=""/>
    <tripinfo id="Pepoli_8_28_x9" depart="48.00" departLane="210_0" departPos="0.00" departSpeed="0.00" departDelay="0.00" arrival="183.00" arrivalLane="134b_0" arrivalPos="156.17" arrivalSpeed="13.50" duration="135.00" routeLength="692.71" waitingTime="64.00" waitingCount="1" stopTime="0.00" timeLoss="86.17" rerouteNo="0" devices="tripinfo_Pepoli_8_28_x9" vType="passenger1" speedFactor="1.06" vaporized=""/>
    <tripinfo id="Togliatti_3_56_x9" depart="79.00" departLane="85_0" departPos="0.00" departSpeed="0.00" departDelay="0.00" arrival="187.00" arrivalLane="14_0" arrivalPos="77.26" arrivalSpeed="14.83" duration="108.00" routeLength="1110.28" waitingTime="4.00" waitingCount="1" stopTime="0.00" timeLoss="34.92" rerouteNo="0" devices="tripinfo_Togliatti_3_56_x9" vType="passenger4" speedFactor="1.14" vaporized=""/>
    <tripinfo id="Pepoli_8_44_x9" depart="75.00" departLane="210_0" departPos="0.00" departSpeed="0.00" departDelay="0.00" arrival="188.00" arrivalLane="134b_0" arrivalPos="156.17" arrivalSpeed="13.56" duration="113.00" routeLength="692.71" waitingTime="44.00" waitingCount="1" stopTime="0.00" timeLoss="65.23" rerouteNo="0" devices="tripinfo_Pepoli_8_44_x9" vType="passenger2a" speedFactor="1.06" vaporized=""/>
    <tripinfo id="Togliatti_2_40_x9" depart="57.00" departLane="85_0" departPos="0.00" departSpeed="0.00" departDelay="1.00" arrival="189.00" arrivalLane="77[1][1]_0" arrivalPos="463.98" arrivalSpeed="11.94" duration="132.00" routeLength="1145.48" waitingTime="14.00" waitingCount="1" stopTime="0.00" timeLoss="34.65" rerouteNo="0" devices="tripinfo_Togliatti_2_40_x9" vType="passenger1" speedFactor="0.87" vaporized=""/>
    <tripinfo id="Silvani_11_9_x9" depart="21.00" departLane="203[0]_0" departPos="0.00" departSpeed="0.00" departDelay="0.00" arrival="191.00" arrivalLane="114_1" arrivalPos="692.70" arrivalSpeed="15.84" duration="170.00" routeLength="1114.25" waitingTime="81.00" waitingCount="1" stopTime="0.00" timeLoss="99.11" rerouteNo="0" devices="tripinfo_Silvani_11_9_x9" vType="passenger4" speedFactor="1.15" vaporized=""/>
    <tripinfo id="Togliatti_2_45_x9" depart="64.00" departLane="85_0" departPos="0.00" departSpeed="0.00" departDelay="0.00" arrival="191.00" arrivalLane="77[1][1]_0" arrivalPos="463.98" arrivalSpeed="13.49" duration="127.00" routeLength="1145.48" waitingTime="11.00" waitingCount="1" stopTime="0.00" timeLoss="39.17" rerouteNo="0" devices="tripinfo_Togliatti_2_45_x9" vType="passenger3" speedFactor="0.97" vaporized=""/>
    <tripinfo id="Togliatti_12_79_x9" depart="112.00" departLane="85_2" departPos="0.00" departSpeed="0.00" departDelay="0.00" arrival="191.00" arrivalLane="136_0" arrivalPos="186.20" arrivalSpeed="12.76" duration="79.00" routeLength="909.95" waitingTime="0.00" waitingCount="0" stopTime="0.00" timeLoss="11.51" rerouteNo="0" devices="tripinfo_Togliatti_12_79_x9" vType="passenger2a" speedFactor="1.00" vaporized=""/>
    <tripinfo id="Pepoli_8_48_x9" depart="82.00" departLane="210_0" departPos="0.00" departSpeed="0.00" departDelay="0.00" arrival="192.00" arrivalLane="134b_0" arrivalPos="156.17" arrivalSpeed="12.48" duration="110.00" routeLength="692.71" waitingTime="35.00" waitingCount="1" stopTime="0.00" timeLoss="57.54" rerouteNo="0" devices="tripinfo_Pepoli_8_48_x9" vType="passenger1" speedFactor="0.97" vaporized=""/>
    <tripinfo id="Togliatti_12_83_x9" depart="118.00" departLane="85_2" departPos="0.00" departSpeed="0.00" departDelay="0.00" arrival="193.00" arrivalLane="136_0" arrivalPos="186.20" arrivalSpeed="14.05" duration="75.00" routeLength="909.95" waitingTime="0.00" waitingCount="0" stopTime="0.00" timeLoss="13.22" rerouteNo="0" devices="tripinfo_Togliatti_12_83_x9" vType="passenger3" speedFactor="1.08" vaporized=""/>
    <tripinfo id="Silvani_11_12_x9" depart="28.00" departLane="203[0]_0" departPos="0.00" departSpeed="0.00" departDelay="0.00" arrival="195.00" arrivalLane="114_1" arrivalPos="692.70" arrivalSpeed="14.48" duration="167.00" routeLength="1114.25" waitingTime="77.00" waitingCount="1" stopTime="0.00" timeLoss="92.60" rerouteNo="0" devices="tripinfo_Silvani_11_12_x9" vType="passenger2a" speedFactor="1.08" vaporized=""/>
    <tripinfo id="Turati_3_2_x9" depart="69.00" departLane="195_0" departPos="0.00" departSpeed="0.00" departDelay="0.00" arrival="196.00" arrivalLane="14_0" arrivalPos="77.26" arrivalSpeed="12.92" duration="127.00" routeLength="947.57" waitingTime="43.00" waitingCount="1" stopTime="0.00" timeLoss="57.57" rerouteNo="0" devices="tripinfo_Turati_3_2_x9" vType="ignoring1" speedFactor="1.00" vaporized=""/>
    <tripinfo id="Pepoli_8_51_x9" depart="87.00" departLane="210_0" departPos="0.00" departSpeed="0.00" departDelay="0.00" arrival="196.00" arrivalLane="134b_0" arrivalPos="156.17" arrivalSpeed="12.83" duration="109.00" routeLength="692.71" waitingTime="25.00" waitingCount="1" stopTime="0.00" timeLoss="57.74" rerouteNo="0" devices="tripinfo_Pepoli_8_51_x9" vType="passenger2a" speedFactor="1.00" vaporized=""/>
    <tripinfo id="Silvani_11_1_x9" depart="3.00" departLane="203[0]_0" departPos="0.00" departSpeed="0.00" departDelay="1.00" arrival="197.00" arrivalLane="114_0" arrivalPos="692.70" arrivalSpeed="11.86" duration="194.00" routeLength="1114.25" waitingTime="90.00" waitingCount="1" stopTime="0.00" timeLoss="106.32" rerouteNo="0" devices="tripinfo_Silvani_11_1_x9" vType="passenger2b" speedFactor="0.92" vaporized=""/>
    <tripinfo id="Silvani_11_14_x9" depart="33.00" departLane="203[0]_0" departPos="0.00" departSpeed="0.00" departDelay="0.00" arrival="198.00" arrivalLane="114_1" arrivalPos="692.70" arrivalSpeed="14.18" duration="165.00" routeLength="1114.25" waitingTime="77.00" waitingCount="1" stopTime="0.00" timeLoss="91.68" rerouteNo="0" devices="tripinfo_Silvani_11_14_x9" vType="passenger2b" speedFactor="1.10" vaporized=""/>
    <tripinfo id="Turati_3_3_x9" depart="104.00" departLane="195_0" departPos="0.00" departSpeed="0.00" departDelay="0.00" arrival="199.00" arrivalLane="14_0" arrivalPos="77.26" arrivalSpeed="13.17" duration="95.00" routeLength="947.57" waitingTime="10.00" waitingCount="1" stopTime="0.00" timeLoss="25.86" rerouteNo="0" devices="tripinfo_Turati_3_3_x9" vType="ignoring2b" speedFactor="1.00" vaporized=""/>
    <tripinfo id="Silvani_11_13_x9" depart="30.00" departLane="203[0]_0" departPos="0.00" departSpeed="0.00" departDelay="0.00" arrival="200.00" arrivalLane="114_2" arrivalPos="692.70" arrivalSpeed="14.47" duration="170.00" routeLength="1114.25" waitingTime="76.00" waitingCount="1" stopTime="0.00" timeLoss="93.20" rerouteNo="0" devices="tripinfo_Silvani_11_13_x9" vType="passenger1" speedFactor="1.05" vaporized=""/>
    <tripinfo id="Togliatti_2_47_x9" depart="67.00" departLane="85_0" departPos="0.00" departSpeed="0.00" departDelay="1.00" arrival="200.00" arrivalLane="77[1][1]_0" arrivalPos="463.98" arrivalSpeed="11.34" duration="133.00" routeLength="1145.48" waitingTime="7.00" waitingCount="1" stopTime="0.00" timeLoss="30.19" rerouteNo="0" devices="tripinfo_Togliatti_2_47_x9" vType="passenger1" speedFactor="0.83" vaporized=""/>
    <tripinfo id="Pepoli_3_0_x9" depart="0.00" departLane="210_2" departPos="0.00" departSpeed="0.00" departDelay="0.00" arrival="201.00" arrivalLane="14_0" arrivalPos="77.26" arrivalSpeed="12.72" duration="201.00" routeLength="1941.55" waitingTime="39.00" waitingCount="1" stopTime="0.00" timeLoss="59.08" rerouteNo="0" devices="tripinfo_Pepoli_3_0_x9" vType="ignoring2b" speedFactor="1.00" vaporized=""/>
    <tripinfo id="Costa_1_4_x9" depart="15.00" departLane="78[0]_0" departPos="0.00" departSpeed="0.00" departDelay="5.00" arrival="201.00" arrivalLane="86_0" arrivalPos="321.19" arrivalSpeed="12.62" duration="186.00" routeLength="1191.74" waitingTime="81.00" waitingCount="1" stopTime="0.00" timeLoss="98.36" rerouteNo="0" devices="tripinfo_Costa_1_4_x9" vType="passenger2a" speedFactor="0.99" vaporized=""/>
    <tripinfo id="Togliatti_2_63_x9" depart="89.00" departLane="85_0" departPos="0.00" departSpeed="0.00" departDelay="0.00" arrival="201.00" arrivalLane="77[1][1]_0" arrivalPos="463.98" arrivalSpeed="12.52" duration="112.00" routeLength="1145.48" waitingTime="0.00" waitingCount="0" stopTime="0.00" timeLoss="24.37" rerouteNo="0" devices="tripinfo_Togliatti_2_63_x9" vType="passenger4" speedFactor="0.96" vaporized=""/>
    <tripinfo id="Silvani_11_0_x9" depart="0.00" departLane="203[0]_0" departPos="0.00" departSpeed="0.00" departDelay="0.00" arrival="202.00" arrivalLane="114_0" arrivalPos="692.70" arrivalSpeed="10.55" duration="202.00" routeLength="1114.25" waitingTime="92.00" waitingCount="1" stopTime="0.00" timeLoss="104.81" rerouteNo="0" devices="tripinfo_Silvani_11_0_x9" vType="passenger3" speedFactor="0.83" vaporized=""/>
    <tripinfo id="Silvani_11_8_x9" depart="18.00" departLane="203[0]_0" departPos="0.00" departSpeed="0.00" departDelay="0.00" arrival="202.00" arrivalLane="114_1" arrivalPos="692.70" arrivalSpeed="12.17" duration="184.00" routeLength="1114.25" waitingTime="82.00" waitingCount="1" stopTime="0.00" timeLoss="99.54" rerouteNo="0" devices="tripinfo_Silvani_11_8_x9" vType="passenger3" speedFactor="0.96" vaporized=""/>
    <tripinfo id="Costa_1_15_x9" depart="39.00" departLane="78[0]_0" departPos="0.00" departSpeed="0.00" departDelay="0.00" arrival="202.00" arrivalLane="86_2" arrivalPos="321.19" arrivalSpeed="15.06" duration="163.00" routeLength="1182.55" waitingTime="61.00" waitingCount="2" stopTime="0.00" timeLoss="82.94" rerouteNo="0" devices="tripinfo_Costa_1_15_x9" vType="passenger1" speedFactor="1.10" vaporized=""/>
    <tripinfo id="Costa_1_19_x9" depart="51.00" departLane="78[0]_0" departPos="0.00" departSpeed="0.00" departDelay="2.00" arrival="202.00" arrivalLane="86_1" arrivalPos="321.19" arrivalSpeed="15.36" duration="151.00" routeLength="1191.74" waitingTime="44.00" waitingCount="1" stopTime="0.00" timeLoss="71.75" rerouteNo="0" devices="tripinfo_Costa_1_19_x9" vType="passenger1" speedFactor="1.11" vaporized=""/>
    <tripinfo id="Pepoli_3_2_x9" depart="3.00" departLane="210_2" departPos="0.00" departSpeed="0.00" departDelay="0.00" arrival="203.00" arrivalLane="14_0" arrivalPos="77.26" arrivalSpeed="13.54" duration="200.00" routeLength="1941.55" waitingTime="37.00" waitingCount="1" stopTime="0.00" timeLoss="57.82" rerouteNo="0" devices="tripinfo_Pepoli_3_2_x9" vType="ignoring1" speedFactor="1.00" vaporized=""/>
    <tripinfo id="Togliatti_2_66_x9" depart="93.00" departLane="85_0" departPos="0.00" departSpeed="0.00" departDelay="0.00" arrival="203.00" arrivalLane="77[1][1]_0" arrivalPos="463.98" arrivalSpeed="15.30" duration="110.00" routeLength="1145.48" waitingTime="0.00" waitingCount="0" stopTime="0.00" timeLoss="37.21" rerouteNo="0" devices="tripinfo_Togliatti_2_66_x9" vType="passenger2a" speedFactor="1.16" vaporized=""/>
    <tripinfo id="Silvani_11_17_x9" depart="40.00" departLane="203[0]_0" departPos="0.00" departSpeed="0.00" departDelay="0.00" arrival="205.00" arrivalLane="114_0" arrivalPos="692.70" arrivalSpeed="13.47" duration="165.00" routeLength="1114.25" waitingTime="69.00" waitingCount="1" stopTime="0.00" timeLoss="83.45" rerouteNo="0" devices="tripinfo_Silvani_11_17_x9" vType="passenger1" speedFactor="0.99" vaporized=""/>
    <tripinfo id="Pepoli_8_62_x9" depart="106.00" departLane="210_0" departPos="0.00" departSpeed="0.00" departDelay="0.00" arrival="205.00" arrivalLane="134b_0" arrivalPos="156.17" arrivalSpeed="11.34" duration="99.00" routeLength="692.71" waitingTime="20.00" waitingCount="1" stopTime="0.00" timeLoss="39.65" rerouteNo="0" devices="tripinfo_Pepoli_8_62_x9" vType="passenger2b" speedFactor="0.87" vaporized=""/>
    <tripinfo id="Pepoli_3_12_x9" depart="20.00" departLane="210_2" departPos="0.00" departSpeed="0.00" departDelay="0.00" arrival="206.00" arrivalLane="14_0" arrivalPos="77.26" arrivalSpeed="13.47" duration="186.00" routeLength="1941.55" waitingTime="22.00" waitingCount="1" stopTime="0.00" timeLoss="44.30" rerouteNo="0" devices="tripinfo_Pepoli_3_12_x9" vType="ignoring5" speedFactor="1.00" vaporized=""/>